
*************** JDFTx 1.4.2  ***************

Start date and time: Mon Apr 22 23:36:17 2019
Executable jdftx with command-line: -i totalE.in
Running on hosts (process indices):  Juans-MBP.lan1 (0)
Divided in process groups (process indices):  0 (0)
Resource initialization completed at t[s]:      0.00
Run totals: 1 processes, 12 threads, 0 GPUs


Input parsed successfully to the following command list (including defaults):

basis kpoint-dependent
coords-type Cartesian
core-overlap-check vector
coulomb-interaction Isolated
coulomb-truncation-embed 0 0 0
davidson-band-ratio 1.1
dump End None State BoundCharge
dump 
dump-name H2O.$VAR
elec-cutoff 20 100
elec-eigen-algo Davidson
elec-ex-corr gga-PBE
elec-initial-charge 0.000000
electronic-minimize  \
	dirUpdateScheme      FletcherReeves \
	linminMethod         DirUpdateRecommended \
	nIterations          100 \
	history              15 \
	knormThreshold       0 \
	energyDiffThreshold  1e-08 \
	nEnergyDiff          2 \
	alphaTstart          1 \
	alphaTmin            1e-10 \
	updateTestStepSize   yes \
	alphaTreduceFactor   0.1 \
	alphaTincreaseFactor 3 \
	nAlphaAdjustMax      3 \
	wolfeEnergy          0.0001 \
	wolfeGradient        0.9 \
	fdTest               no
exchange-regularization None
fluid LinearPCM 298.000000 1.013250
fluid-anion F- 1 MeanFieldLJ \
	epsBulk 1 \
	pMol 0 \
	epsInf 1 \
	Pvap 0 \
	sigmaBulk 0 \
	Rvdw 2.24877 \
	Res 0
fluid-cation Na+ 1 MeanFieldLJ \
	epsBulk 1 \
	pMol 0 \
	epsInf 1 \
	Pvap 0 \
	sigmaBulk 0 \
	Rvdw 2.19208 \
	Res 0
fluid-ex-corr lda-TF lda-PZ
fluid-gummel-loop 10 1.000000e-05
fluid-minimize  \
	dirUpdateScheme      PolakRibiere \
	linminMethod         DirUpdateRecommended \
	nIterations          400 \
	history              15 \
	knormThreshold       1e-11 \
	energyDiffThreshold  0 \
	nEnergyDiff          2 \
	alphaTstart          1 \
	alphaTmin            1e-10 \
	updateTestStepSize   yes \
	alphaTreduceFactor   0.1 \
	alphaTincreaseFactor 3 \
	nAlphaAdjustMax      6 \
	wolfeEnergy          0.0001 \
	wolfeGradient        0.9 \
	fdTest               no
fluid-solvent H2O 55.338 ScalarEOS \
	epsBulk 78.4 \
	pMol 0.92466 \
	epsInf 1.77 \
	Pvap 1.06736e-10 \
	sigmaBulk 4.62e-05 \
	Rvdw 2.61727 \
	Res 1.42
forces-output-coords Positions
initial-state H2O.$VAR
ion O   0.000000000000000   0.000000000000000   0.000000000000000 0
ion H   0.000000000000000   1.130000000000000   1.450000000000000 1
ion H   0.000000000000000   1.130000000000000  -1.450000000000000 1
ion-species GBRV/$ID_pbe.uspp
ion-width Ecut
ionic-minimize  \
	dirUpdateScheme      L-BFGS \
	linminMethod         DirUpdateRecommended \
	nIterations          10 \
	history              15 \
	knormThreshold       0.0001 \
	energyDiffThreshold  1e-06 \
	nEnergyDiff          2 \
	alphaTstart          1 \
	alphaTmin            1e-10 \
	updateTestStepSize   yes \
	alphaTreduceFactor   0.1 \
	alphaTincreaseFactor 3 \
	nAlphaAdjustMax      3 \
	wolfeEnergy          0.0001 \
	wolfeGradient        0.9 \
	fdTest               no
kpoint   0.000000000000   0.000000000000   0.000000000000  1.00000000000000
kpoint-folding 1 1 1 
latt-move-scale 1 1 1
latt-scale 1 1 1 
lattice Cubic 15
lattice-minimize  \
	dirUpdateScheme      L-BFGS \
	linminMethod         DirUpdateRecommended \
	nIterations          0 \
	history              15 \
	knormThreshold       0 \
	energyDiffThreshold  1e-06 \
	nEnergyDiff          2 \
	alphaTstart          1 \
	alphaTmin            1e-10 \
	updateTestStepSize   yes \
	alphaTreduceFactor   0.1 \
	alphaTincreaseFactor 3 \
	nAlphaAdjustMax      3 \
	wolfeEnergy          0.0001 \
	wolfeGradient        0.9 \
	fdTest               no
lcao-params -1 1e-06 0.001
pcm-variant CANDLE
spintype no-spin
subspace-rotation-factor 1 yes
symmetries automatic
symmetry-threshold 0.0001



---------- Setting up symmetries ----------

Found 48 point-group symmetries of the bravais lattice
Found 4 space-group symmetries with basis
Applied RMS atom displacement 0 bohrs to make symmetries exact.

---------- Initializing the Grid ----------
R = 
[         15          0          0  ]
[          0         15          0  ]
[          0          0         15  ]
unit cell volume = 3375
G =
[   0.418879          0          0  ]
[          0   0.418879          0  ]
[          0          0   0.418879  ]
Minimum fftbox size, Smin = [  68  68  68  ]
Chosen fftbox size, S = [  70  70  70  ]

---------- Initializing tighter grid for wavefunction operations ----------
R = 
[         15          0          0  ]
[          0         15          0  ]
[          0          0         15  ]
unit cell volume = 3375
G =
[   0.418879          0          0  ]
[          0   0.418879          0  ]
[          0          0   0.418879  ]
Minimum fftbox size, Smin = [  64  64  64  ]
Chosen fftbox size, S = [  64  64  64  ]

---------- Exchange Correlation functional ----------
Initalized PBE GGA exchange.
Initalized PBE GGA correlation.

---------- Setting up pseudopotentials ----------
Width of ionic core gaussian charges (only for fluid interactions / plotting) set to 0.397384

Reading pseudopotential file '/Users/juanmendezvalderrama/Documents/JDFTX/build/pseudopotentials/GBRV/o_pbe.uspp':
  Title: O.  Created by USPP 7.3.6 on 3-2-2014
  Reference state energy: -15.894388.  6 valence electrons in orbitals:
    |200>  occupation: 2  eigenvalue: -0.878823
    |210>  occupation: 4  eigenvalue: -0.332131
  lMax: 2  lLocal: 2  QijEcut: 6
  5 projectors sampled on a log grid with 511 points:
    l: 0  eig: -0.878823  rCut: 1.25
    l: 0  eig: 0.000000  rCut: 1.25
    l: 1  eig: -0.332132  rCut: 1.25
    l: 1  eig: 0.000000  rCut: 1.25
    l: 2  eig: 1.000000  rCut: 1.25
  Partial core density with radius 0.7
  Transforming core density to a uniform radial grid of dG=0.02 with 1275 points.
  Transforming local potential to a uniform radial grid of dG=0.02 with 1275 points.
  Transforming nonlocal projectors to a uniform radial grid of dG=0.02 with 432 points.
  Transforming density augmentations to a uniform radial grid of dG=0.02 with 1275 points.
  Transforming atomic orbitals to a uniform radial grid of dG=0.02 with 432 points.
  Core radius for overlap checks: 1.25 bohrs.

Reading pseudopotential file '/Users/juanmendezvalderrama/Documents/JDFTX/build/pseudopotentials/GBRV/h_pbe.uspp':
  Title: H.  Created by USPP 7.3.6 on 2-4-15
  Reference state energy: -0.458849.  1 valence electrons in orbitals:
    |100>  occupation: 1  eigenvalue: -0.238595
  lMax: 0  lLocal: 1  QijEcut: 6
  2 projectors sampled on a log grid with 395 points:
    l: 0  eig: -0.238595  rCut: 1.2
    l: 0  eig: 1.000000  rCut: 1.2
  Transforming local potential to a uniform radial grid of dG=0.02 with 1275 points.
  Transforming nonlocal projectors to a uniform radial grid of dG=0.02 with 432 points.
  Transforming density augmentations to a uniform radial grid of dG=0.02 with 1275 points.
  Transforming atomic orbitals to a uniform radial grid of dG=0.02 with 432 points.
  Core radius for overlap checks: 1.20 bohrs.

Initialized 2 species with 3 total atoms.

Folded 1 k-points by 1x1x1 to 1 k-points.

---------- Setting up k-points, bands, fillings ----------
No reducable k-points. 
Computing the number of bands and number of electrons
Calculating initial fillings.
nElectrons:   8.000000   nBands: 4   nStates: 1

----- Setting up reduced wavefunction bases (one per k-point) -----
average nbasis = 14363.000 , ideal nbasis = 14418.257

---------- Setting up coulomb interaction ----------
Fluid mode embedding: using embedded box, but periodic Coulomb kernel.
(Fluid response is responsible for (approximate) separation between periodic images.)
Setting up double-sized grid for truncated Coulomb potentials:
R = 
[         30          0          0  ]
[          0         30          0  ]
[          0          0         30  ]
unit cell volume = 27000
G =
[    0.20944          0          0  ]
[          0    0.20944          0  ]
[          0          0    0.20944  ]
Chosen fftbox size, S = [  140  140  140  ]
Integer grid location selected as the embedding center:
   Grid: [  0  0  0  ]
   Lattice: [  0  0  0  ]
   Cartesian: [  0  0  0  ]
Constructing Wigner-Seitz cell: 6 faces (6 quadrilaterals, 0 hexagons)
Range-separation parameter for embedded mesh potentials due to point charges: 0.583992 bohrs.

Initializing van der Waals corrections
	NOTE: vdW corrections apply only for interactions with fluid.
	 O:  C6:   12.14 Eh-a0^6  R0: 2.536 a0
	 H:  C6:    2.43 Eh-a0^6  R0: 1.892 a0

---------- Setting up ewald sum ----------
Optimum gaussian width for ewald sums = 9.965776 bohr.
Real space sum over 1331 unit cells with max indices [  5  5  5  ]
Reciprocal space sum over 2197 terms with max indices [  6  6  6  ]

---------- Allocating electronic variables ----------
Initializing wave functions:  linear combination of atomic orbitals
O pseudo-atom occupations:   s ( 2 )  p ( 4 )
H pseudo-atom occupations:   s ( 1 )
	FillingsUpdate:  mu: -0.000000000  nElectrons: 8.000000
LCAOMinimize: Iter:   0  Etot: -17.0481169354353099  |grad|_K:  7.284e-02  alpha:  1.000e+00
	FillingsUpdate:  mu: -0.000000000  nElectrons: 8.000000
LCAOMinimize: Iter:   1  Etot: -17.1180148465546651  |grad|_K:  5.980e-03  alpha:  4.676e-01  linmin: -4.692e-01  cgtest:  7.520e-01  t[s]:      5.31
LCAOMinimize: Encountered beta<0, resetting CG.
	FillingsUpdate:  mu: -0.000000000  nElectrons: 8.000000
LCAOMinimize: Iter:   2  Etot: -17.1185376278536197  |grad|_K:  1.791e-03  alpha:  6.016e-01  linmin:  3.278e-02  cgtest: -1.163e-01  t[s]:      5.71
	FillingsUpdate:  mu: -0.000000000  nElectrons: 8.000000
LCAOMinimize: Iter:   3  Etot: -17.1185908112699323  |grad|_K:  3.106e-04  alpha:  7.026e-01  linmin: -3.253e-03  cgtest:  4.279e-01  t[s]:      6.13
LCAOMinimize: Encountered beta<0, resetting CG.
LCAOMinimize: None of the convergence criteria satisfied after 3 iterations.
----- createFluidSolver() ----- (Fluid-side solver setup)
   Initializing fluid molecule 'H2O'
     Initializing site 'O'
       Electron density: proportional to exp(-r/0.36935)*erfc((r-0.51523)/0.36823) with norm 6.826
       Charge density: gaussian nuclear width 0.478731 with net site charge 0.826
       Polarizability: cuspless exponential with width 0.32 and norm 3.73
       Hard sphere radius: 2.57003 bohrs
       Positions in reference frame:
         [ +0.000000 +0.000000 +0.000000 ]
     Initializing site 'H'
       Electron density: proportional to exp(-r/0.34641)*erfc((r-0)/0.390882) with norm 0.587
       Charge density: gaussian nuclear width 0.377945 with net site charge -0.413
       Polarizability: cuspless exponential with width 0.39 and norm 3.3
       Positions in reference frame:
         [ +0.000000 -1.441945 +1.122523 ]
         [ +0.000000 +1.441945 +1.122523 ]
     Net charge: 0   dipole magnitude: 0.927204
     Initializing spherical shell mfKernel with radius 2.61727 Bohr
     deltaS corrections:
       site 'O': -7.54299
       site 'H': -6.83917
   Initializing fluid molecule 'Na+'
     Initializing site 'Na'
       Electron density: proportional to exp(-r/0.19682)*erfc((r-0.71491)/0.41314) with norm 8.1383
       Charge density: gaussian nuclear width 0.365347 with net site charge -1
       Hard sphere radius: 1.86327 bohrs
       Positions in reference frame:
         [ +0.000000 +0.000000 +0.000000 ]
     Net charge: -1   dipole magnitude: 0
     Initializing gaussian mfKernel with width: 1.55004 Bohr
     deltaS corrections:
       site 'Na': -22.3555
   Initializing fluid molecule 'F-'
     Initializing site 'F'
       Electron density: proportional to exp(-r/0.38886)*erfc((r-0)/0.438782) with norm 8
       Charge density: gaussian nuclear width 0.374796 with net site charge 1
       Hard sphere radius: 2.39995 bohrs
       Positions in reference frame:
         [ +0.000000 +0.000000 +0.000000 ]
     Net charge: 1   dipole magnitude: 0
     Initializing gaussian mfKernel with width: 1.59012 Bohr
     deltaS corrections:
       site 'F': -9.04335

Correction to mu due to finite nuclear width = -0.000293985
   Cavity determined by nc: 0.00142 and sigma: 0.707107
   Nonlocal vdW cavity from gaussian model electron density with norm = 8 and sigma = 0.993594 bohr
   Charge asymmetry in cavity with sensitivity pCavity = 36.5 e-bohr/Eh
   Electrostatic cavity expanded by eta = 1.46 bohrs
   Weighted density cavitation model constrained by Nbulk: 0.0049383 bohr^-3, Pvap: 3.14029 kPa, Rvdw: 2.61727 bohr and sigmaBulk: 4.62e-05 Eh/bohr^2 at T: 298 K.
   Weighted density dispersion model using vdW pair potentials with single solvent site with sqrtC6eff: 0.77 SI.


---- Citations for features of the code used in this run ----

   Software package:
      R. Sundararaman, K. Letchworth-Weaver, K.A. Schwarz, D. Gunceler, Y. Ozhabes and T.A. Arias, 'JDFTx: software for joint density-functional theory', SoftwareX 6, 278 (2017)

   gga-PBE exchange-correlation functional:
      J.P. Perdew, K. Burke and M. Ernzerhof, Phys. Rev. Lett. 77, 3865 (1996)

   Pseudopotentials:
      KF Garrity, JW Bennett, KM Rabe and D Vanderbilt, Comput. Mater. Sci. 81, 446 (2014)

   Truncated Coulomb potentials:
      R. Sundararaman and T.A. Arias, Phys. Rev. B 87, 165122 (2013)

   Van der Waals correction pair-potentials:
      S. Grimme, J. Comput. Chem. 27, 1787 (2006)

   Charge-asymmetric nonlocally-determined local-electric (CANDLE) solvation model:
      R. Sundararaman and W.A. Goddard III, J. Chem. Phys. 142, 064107 (2015)

   Total energy minimization:
      T.A. Arias, M.C. Payne and J.D. Joannopoulos, Phys. Rev. Lett. 69, 1077 (1992)

This list may not be complete. Please suggest additional citations or
report any other bugs at https://github.com/shankar1729/jdftx/issues

Initialization completed successfully at t[s]:      6.54

Fluid solver invoked on fresh (partially random / LCAO) wavefunctions
Running a vacuum solve first:

-------- Initial electronic minimization -----------
ElecMinimize: Iter:   0  Etot: -17.118590811269879  |grad|_K:  1.910e-03  alpha:  1.000e+00
ElecMinimize: Iter:   1  Etot: -17.242447709206886  |grad|_K:  6.519e-04  alpha:  5.879e-01  linmin: -1.635e-02  t[s]:      7.22
ElecMinimize: Iter:   2  Etot: -17.259623340029126  |grad|_K:  3.934e-04  alpha:  6.970e-01  linmin: -7.280e-03  t[s]:      7.60
ElecMinimize: Iter:   3  Etot: -17.265729225045639  |grad|_K:  2.048e-04  alpha:  6.819e-01  linmin:  3.802e-03  t[s]:      7.98
ElecMinimize: Iter:   4  Etot: -17.267525590235252  |grad|_K:  9.661e-05  alpha:  7.480e-01  linmin: -2.110e-03  t[s]:      8.33
ElecMinimize: Iter:   5  Etot: -17.267998570295660  |grad|_K:  5.299e-05  alpha:  8.812e-01  linmin:  2.977e-03  t[s]:      8.74
ElecMinimize: Iter:   6  Etot: -17.268133445220169  |grad|_K:  3.302e-05  alpha:  8.383e-01  linmin: -7.051e-04  t[s]:      9.11
ElecMinimize: Iter:   7  Etot: -17.268183300726839  |grad|_K:  1.940e-05  alpha:  7.952e-01  linmin:  4.338e-04  t[s]:      9.49
ElecMinimize: Iter:   8  Etot: -17.268198189972285  |grad|_K:  9.743e-06  alpha:  6.890e-01  linmin: -2.557e-04  t[s]:      9.90
ElecMinimize: Iter:   9  Etot: -17.268201907183403  |grad|_K:  4.975e-06  alpha:  6.815e-01  linmin:  9.659e-05  t[s]:     10.25
ElecMinimize: Iter:  10  Etot: -17.268203022095378  |grad|_K:  2.449e-06  alpha:  7.842e-01  linmin: -1.341e-04  t[s]:     10.60
ElecMinimize: Iter:  11  Etot: -17.268203306375067  |grad|_K:  1.228e-06  alpha:  8.247e-01  linmin:  2.267e-05  t[s]:     10.95
ElecMinimize: Iter:  12  Etot: -17.268203369590317  |grad|_K:  6.286e-07  alpha:  7.294e-01  linmin: -1.236e-05  t[s]:     11.30
ElecMinimize: Iter:  13  Etot: -17.268203385421877  |grad|_K:  3.585e-07  alpha:  6.973e-01  linmin:  2.501e-05  t[s]:     11.64
ElecMinimize: Iter:  14  Etot: -17.268203390542936  |grad|_K:  1.785e-07  alpha:  6.937e-01  linmin: -4.357e-06  t[s]:     11.98
ElecMinimize: Iter:  15  Etot: -17.268203391923645  |grad|_K:  8.457e-08  alpha:  7.542e-01  linmin:  8.767e-05  t[s]:     12.33
ElecMinimize: Converged (|Delta Etot|<1.000000e-08 for 2 iters).
Setting wave functions to eigenvectors of Hamiltonian
Vacuum energy after initial minimize, Etot = -17.268203391923645

	Linear fluid (dielectric constant: 78.4, screening length: 5.74355 Bohr) occupying 0.977050 of unit cell:	Completed after 14 iterations at t[s]:     17.08

-------- Electronic minimization -----------
	Linear fluid (dielectric constant: 78.4, screening length: 5.74355 Bohr) occupying 0.977050 of unit cell:	Completed after 0 iterations at t[s]:     18.78
ElecMinimize: Iter:   0  Etot: -17.277837353284944  |grad|_K:  1.849e-04  alpha:  1.000e+00
	Linear fluid (dielectric constant: 78.4, screening length: 5.74355 Bohr) occupying 0.977517 of unit cell:	Completed after 11 iterations at t[s]:     24.85
	Linear fluid (dielectric constant: 78.4, screening length: 5.74355 Bohr) occupying 0.977535 of unit cell:	Completed after 3 iterations at t[s]:     28.73
ElecMinimize: Iter:   1  Etot: -17.279874421320478  |grad|_K:  1.241e-04  alpha:  1.036e+00  linmin: -1.151e-02  t[s]:     29.95
	Linear fluid (dielectric constant: 78.4, screening length: 5.74355 Bohr) occupying 0.977773 of unit cell:	Completed after 9 iterations at t[s]:     33.06
	Linear fluid (dielectric constant: 78.4, screening length: 5.74355 Bohr) occupying 0.977682 of unit cell:	Completed after 5 iterations at t[s]:     36.92
ElecMinimize: Iter:   2  Etot: -17.280443799743416  |grad|_K:  7.218e-05  alpha:  6.346e-01  linmin: -4.545e-04  t[s]:     37.79
	Linear fluid (dielectric constant: 78.4, screening length: 5.74355 Bohr) occupying 0.977740 of unit cell:	Completed after 7 iterations at t[s]:     40.67
	Linear fluid (dielectric constant: 78.4, screening length: 5.74355 Bohr) occupying 0.977749 of unit cell:	Completed after 3 iterations at t[s]:     43.21
ElecMinimize: Iter:   3  Etot: -17.280664520025532  |grad|_K:  3.912e-05  alpha:  7.370e-01  linmin: -6.517e-05  t[s]:     44.21
	Linear fluid (dielectric constant: 78.4, screening length: 5.74355 Bohr) occupying 0.977747 of unit cell:	Completed after 5 iterations at t[s]:     46.21
	Linear fluid (dielectric constant: 78.4, screening length: 5.74355 Bohr) occupying 0.977747 of unit cell:	Completed after 2 iterations at t[s]:     48.78
ElecMinimize: Iter:   4  Etot: -17.280740396369666  |grad|_K:  2.072e-05  alpha:  8.632e-01  linmin:  3.067e-04  t[s]:     49.92
	Linear fluid (dielectric constant: 78.4, screening length: 5.74355 Bohr) occupying 0.977739 of unit cell:	Completed after 3 iterations at t[s]:     52.28
	Linear fluid (dielectric constant: 78.4, screening length: 5.74355 Bohr) occupying 0.977739 of unit cell:	Completed after 0 iterations at t[s]:     56.19
ElecMinimize: Iter:   5  Etot: -17.280762328341659  |grad|_K:  1.090e-05  alpha:  8.897e-01  linmin: -1.587e-03  t[s]:     58.33
	Linear fluid (dielectric constant: 78.4, screening length: 5.74355 Bohr) occupying 0.977734 of unit cell:	Completed after 2 iterations at t[s]:     61.45
	Linear fluid (dielectric constant: 78.4, screening length: 5.74355 Bohr) occupying 0.977735 of unit cell:	Completed after 0 iterations at t[s]:     64.66
ElecMinimize: Iter:   6  Etot: -17.280767588617977  |grad|_K:  5.412e-06  alpha:  7.683e-01  linmin:  9.237e-03  t[s]:     66.06
	Linear fluid (dielectric constant: 78.4, screening length: 5.74355 Bohr) occupying 0.977734 of unit cell:	Completed after 1 iterations at t[s]:     68.14
	Linear fluid (dielectric constant: 78.4, screening length: 5.74355 Bohr) occupying 0.977734 of unit cell:	Completed after 0 iterations at t[s]:     70.88
ElecMinimize: Iter:   7  Etot: -17.280768783057059  |grad|_K:  2.543e-06  alpha:  7.174e-01  linmin: -1.423e-02  t[s]:     72.25
	Linear fluid (dielectric constant: 78.4, screening length: 5.74355 Bohr) occupying 0.977734 of unit cell:	Completed after 0 iterations at t[s]:     73.42
	Linear fluid (dielectric constant: 78.4, screening length: 5.74355 Bohr) occupying 0.977733 of unit cell:	Completed after 1 iterations at t[s]:     76.34
ElecMinimize: Iter:   8  Etot: -17.280769111156587  |grad|_K:  1.456e-06  alpha:  9.267e-01  linmin:  4.252e-02  t[s]:     77.30
	Linear fluid (dielectric constant: 78.4, screening length: 5.74355 Bohr) occupying 0.977733 of unit cell:	Completed after 0 iterations at t[s]:     78.52
	Linear fluid (dielectric constant: 78.4, screening length: 5.74355 Bohr) occupying 0.977733 of unit cell:	Completed after 0 iterations at t[s]:     82.64
ElecMinimize: Iter:   9  Etot: -17.280769209253698  |grad|_K:  7.509e-07  alpha:  8.446e-01  linmin: -8.938e-06  t[s]:     84.48
	Linear fluid (dielectric constant: 78.4, screening length: 5.74355 Bohr) occupying 0.977734 of unit cell:	Completed after 0 iterations at t[s]:     86.04
	Linear fluid (dielectric constant: 78.4, screening length: 5.74355 Bohr) occupying 0.977734 of unit cell:	Completed after 0 iterations at t[s]:     89.17
ElecMinimize: Iter:  10  Etot: -17.280769235659903  |grad|_K:  3.722e-07  alpha:  8.151e-01  linmin: -6.341e-06  t[s]:     90.43
	Linear fluid (dielectric constant: 78.4, screening length: 5.74355 Bohr) occupying 0.977734 of unit cell:	Completed after 0 iterations at t[s]:     91.62
	Linear fluid (dielectric constant: 78.4, screening length: 5.74355 Bohr) occupying 0.977734 of unit cell:	Completed after 0 iterations at t[s]:     93.69
ElecMinimize: Iter:  11  Etot: -17.280769241615168  |grad|_K:  1.850e-07  alpha:  7.482e-01  linmin: -1.757e-05  t[s]:     94.82
	Linear fluid (dielectric constant: 78.4, screening length: 5.74355 Bohr) occupying 0.977734 of unit cell:	Completed after 1 iterations at t[s]:     97.19
	Linear fluid (dielectric constant: 78.4, screening length: 5.74355 Bohr) occupying 0.977734 of unit cell:	Completed after 0 iterations at t[s]:    100.78
ElecMinimize: 	Step increased Etot by 1.056249e-08, reducing alpha to 7.795870e-03.
	Linear fluid (dielectric constant: 78.4, screening length: 5.74355 Bohr) occupying 0.977734 of unit cell:	Completed after 0 iterations at t[s]:    103.90
ElecMinimize: 	Step increased Etot by 1.062495e-08, reducing alpha to 7.795870e-04.
	Linear fluid (dielectric constant: 78.4, screening length: 5.74355 Bohr) occupying 0.977734 of unit cell:	Completed after 0 iterations at t[s]:    107.54
ElecMinimize: 	Step increased Etot by 1.063237e-08, reducing alpha to 7.795870e-05.
ElecMinimize: 	Step failed to reduce Etot after 3 attempts. Quitting step.
ElecMinimize: 	Undoing step.
	Linear fluid (dielectric constant: 78.4, screening length: 5.74355 Bohr) occupying 0.977734 of unit cell:	Completed after 0 iterations at t[s]:    110.70
ElecMinimize: 	Step failed: resetting search direction.
ElecMinimize: Iter:  12  Etot: -17.280769230982582  |grad|_K:  3.478e-07  alpha:  7.796e-05
	Linear fluid (dielectric constant: 78.4, screening length: 5.74355 Bohr) occupying 0.977734 of unit cell:	Completed after 0 iterations at t[s]:    113.89
	Linear fluid (dielectric constant: 78.4, screening length: 5.74355 Bohr) occupying 0.977733 of unit cell:	Completed after 0 iterations at t[s]:    116.75
ElecMinimize: Iter:  13  Etot: -17.280769238366744  |grad|_K:  2.406e-07  alpha:  1.063e+00  linmin:  5.252e-05  t[s]:    118.27
	Linear fluid (dielectric constant: 78.4, screening length: 5.74355 Bohr) occupying 0.977733 of unit cell:	Completed after 0 iterations at t[s]:    119.66
	Linear fluid (dielectric constant: 78.4, screening length: 5.74355 Bohr) occupying 0.977733 of unit cell:	Completed after 0 iterations at t[s]:    122.77
ElecMinimize: Iter:  14  Etot: -17.280769240994829  |grad|_K:  1.356e-07  alpha:  7.901e-01  linmin: -2.901e-05  t[s]:    124.39
ElecMinimize: Converged (|Delta Etot|<1.000000e-08 for 2 iters).
Setting wave functions to eigenvectors of Hamiltonian
Single-point solvation energy estimate, DeltaEtot = -0.012565849071184

# Ionic positions in cartesian coordinates:
ion O   0.000000000000000   0.000000000000000   0.000000000000000 0
ion H   0.000000000000000   1.130000000000000   1.450000000000000 1
ion H   0.000000000000000   1.130000000000000  -1.450000000000000 1


# Forces in Cartesian coordinates:
force O   0.000000000000000  -0.012036938167692   0.000000000000000 0
force H   0.000000000000000   0.005998187353043   0.007718068461322 1
force H   0.000000000000000   0.005998187353043  -0.007718068461322 1

# Energy components:
   A_diel =       -0.0165413244330117
   Eewald =        3.8498998937736171
       EH =       18.4133589995618330
     Eloc =      -45.8378928966200547
      Enl =        2.2353043942402366
      Exc =       -4.3583890386112509
 Exc_core =        0.0650489777314032
       KE =        8.3684417533623954
-------------------------------------
     Etot =      -17.2807692409948288

IonicMinimize: Iter:   0  Etot: -17.280769240994829  |grad|_K:  5.643e-03  t[s]:    126.61

#--- Lowdin population analysis ---
# oxidation-state O -0.808
# oxidation-state H +0.462 +0.462

	Linear fluid (dielectric constant: 78.4, screening length: 5.74355 Bohr) occupying 0.977730 of unit cell:	Completed after 6 iterations at t[s]:    130.74

-------- Electronic minimization -----------
	Linear fluid (dielectric constant: 78.4, screening length: 5.74355 Bohr) occupying 0.977730 of unit cell:	Completed after 0 iterations at t[s]:    133.77
ElecMinimize: Iter:   0  Etot: -17.280881260646037  |grad|_K:  2.794e-05  alpha:  1.000e+00
	Linear fluid (dielectric constant: 78.4, screening length: 5.74355 Bohr) occupying 0.977699 of unit cell:	Completed after 6 iterations at t[s]:    139.05
	Linear fluid (dielectric constant: 78.4, screening length: 5.74355 Bohr) occupying 0.977714 of unit cell:	Completed after 6 iterations at t[s]:    144.19
ElecMinimize: Iter:   1  Etot: -17.280904477857987  |grad|_K:  8.616e-06  alpha:  5.174e-01  linmin:  6.430e-04  t[s]:    145.22
	Linear fluid (dielectric constant: 78.4, screening length: 5.74355 Bohr) occupying 0.977709 of unit cell:	Completed after 1 iterations at t[s]:    146.57
	Linear fluid (dielectric constant: 78.4, screening length: 5.74355 Bohr) occupying 0.977708 of unit cell:	Completed after 0 iterations at t[s]:    148.45
ElecMinimize: Iter:   2  Etot: -17.280906713910181  |grad|_K:  4.371e-06  alpha:  5.244e-01  linmin: -3.125e-03  t[s]:    149.35
	Linear fluid (dielectric constant: 78.4, screening length: 5.74355 Bohr) occupying 0.977703 of unit cell:	Completed after 2 iterations at t[s]:    150.75
	Linear fluid (dielectric constant: 78.4, screening length: 5.74355 Bohr) occupying 0.977699 of unit cell:	Completed after 1 iterations at t[s]:    152.83
ElecMinimize: Iter:   3  Etot: -17.280907740343501  |grad|_K:  2.644e-06  alpha:  9.342e-01  linmin: -3.618e-03  t[s]:    153.72
	Linear fluid (dielectric constant: 78.4, screening length: 5.74355 Bohr) occupying 0.977696 of unit cell:	Completed after 0 iterations at t[s]:    154.49
	Linear fluid (dielectric constant: 78.4, screening length: 5.74355 Bohr) occupying 0.977696 of unit cell:	Completed after 0 iterations at t[s]:    156.10
ElecMinimize: Iter:   4  Etot: -17.280908103743197  |grad|_K:  1.478e-06  alpha:  9.016e-01  linmin: -1.597e-05  t[s]:    157.08
	Linear fluid (dielectric constant: 78.4, screening length: 5.74355 Bohr) occupying 0.977696 of unit cell:	Completed after 2 iterations at t[s]:    158.47
	Linear fluid (dielectric constant: 78.4, screening length: 5.74355 Bohr) occupying 0.977696 of unit cell:	Completed after 0 iterations at t[s]:    160.62
ElecMinimize: Iter:   5  Etot: -17.280908171419956  |grad|_K:  8.396e-07  alpha:  6.365e-01  linmin: -1.162e-01  t[s]:    161.72
	Linear fluid (dielectric constant: 78.4, screening length: 5.74355 Bohr) occupying 0.977696 of unit cell:	Completed after 0 iterations at t[s]:    162.53
	Linear fluid (dielectric constant: 78.4, screening length: 5.74355 Bohr) occupying 0.977696 of unit cell:	Completed after 0 iterations at t[s]:    164.41
ElecMinimize: Iter:   6  Etot: -17.280908203612519  |grad|_K:  4.749e-07  alpha:  7.052e-01  linmin: -1.884e-06  t[s]:    165.45
	Linear fluid (dielectric constant: 78.4, screening length: 5.74355 Bohr) occupying 0.977697 of unit cell:	Completed after 0 iterations at t[s]:    166.32
	Linear fluid (dielectric constant: 78.4, screening length: 5.74355 Bohr) occupying 0.977697 of unit cell:	Completed after 0 iterations at t[s]:    168.18
ElecMinimize: Iter:   7  Etot: -17.280908213094150  |grad|_K:  2.741e-07  alpha:  7.316e-01  linmin:  7.730e-06  t[s]:    169.18
	Linear fluid (dielectric constant: 78.4, screening length: 5.74355 Bohr) occupying 0.977697 of unit cell:	Completed after 0 iterations at t[s]:    170.06
	Linear fluid (dielectric constant: 78.4, screening length: 5.74355 Bohr) occupying 0.977697 of unit cell:	Completed after 0 iterations at t[s]:    171.80
ElecMinimize: Iter:   8  Etot: -17.280908215973021  |grad|_K:  1.512e-07  alpha:  6.669e-01  linmin:  5.266e-05  t[s]:    172.72
ElecMinimize: Converged (|Delta Etot|<1.000000e-08 for 2 iters).
Setting wave functions to eigenvectors of Hamiltonian

# Ionic positions in cartesian coordinates:
ion O   0.000000000000000   0.000000000000000   0.000000000000000 0
ion H   0.000000000000000   1.135998187353043   1.457718068461322 1
ion H   0.000000000000000   1.135998187353043  -1.457718068461322 1


# Forces in Cartesian coordinates:
force O   0.000000000000000  -0.006088211641797   0.000000000000000 0
force H   0.000000000000000   0.002955899909966   0.003366685157585 1
force H   0.000000000000000   0.002955899909966  -0.003366685157585 1

# Energy components:
   A_diel =       -0.0166602103919671
   Eewald =        3.8135887949502076
       EH =       18.3867082082314361
     Eloc =      -45.7668895206518584
      Enl =        2.2338116298918771
      Exc =       -4.3538401852432935
 Exc_core =        0.0650489777314032
       KE =        8.3573240895091701
-------------------------------------
     Etot =      -17.2809082159730210

IonicMinimize: Iter:   1  Etot: -17.280908215973021  |grad|_K:  2.587e-03  alpha:  1.000e+00  linmin: -7.198e-01  t[s]:    173.91

#--- Lowdin population analysis ---
# oxidation-state O -0.807
# oxidation-state H +0.461 +0.461

	Linear fluid (dielectric constant: 78.4, screening length: 5.74355 Bohr) occupying 0.977695 of unit cell:	Completed after 7 iterations at t[s]:    176.93

-------- Electronic minimization -----------
	Linear fluid (dielectric constant: 78.4, screening length: 5.74355 Bohr) occupying 0.977695 of unit cell:	Completed after 0 iterations at t[s]:    179.06
ElecMinimize: Iter:   0  Etot: -17.280927355168409  |grad|_K:  2.365e-05  alpha:  1.000e+00
	Linear fluid (dielectric constant: 78.4, screening length: 5.74355 Bohr) occupying 0.977668 of unit cell:	Completed after 5 iterations at t[s]:    182.02
	Linear fluid (dielectric constant: 78.4, screening length: 5.74355 Bohr) occupying 0.977681 of unit cell:	Completed after 5 iterations at t[s]:    184.85
ElecMinimize: Iter:   1  Etot: -17.280944048265443  |grad|_K:  7.384e-06  alpha:  5.191e-01  linmin:  1.236e-03  t[s]:    185.74
	Linear fluid (dielectric constant: 78.4, screening length: 5.74355 Bohr) occupying 0.977676 of unit cell:	Completed after 2 iterations at t[s]:    187.18
	Linear fluid (dielectric constant: 78.4, screening length: 5.74355 Bohr) occupying 0.977676 of unit cell:	Completed after 0 iterations at t[s]:    189.23
ElecMinimize: Iter:   2  Etot: -17.280945694473392  |grad|_K:  3.767e-06  alpha:  5.258e-01  linmin: -4.338e-03  t[s]:    190.29
	Linear fluid (dielectric constant: 78.4, screening length: 5.74355 Bohr) occupying 0.977672 of unit cell:	Completed after 1 iterations at t[s]:    191.61
	Linear fluid (dielectric constant: 78.4, screening length: 5.74355 Bohr) occupying 0.977668 of unit cell:	Completed after 1 iterations at t[s]:    193.84
ElecMinimize: Iter:   3  Etot: -17.280946469902815  |grad|_K:  2.256e-06  alpha:  9.532e-01  linmin: -4.273e-03  t[s]:    194.72
	Linear fluid (dielectric constant: 78.4, screening length: 5.74355 Bohr) occupying 0.977665 of unit cell:	Completed after 1 iterations at t[s]:    195.89
	Linear fluid (dielectric constant: 78.4, screening length: 5.74355 Bohr) occupying 0.977665 of unit cell:	Completed after 0 iterations at t[s]:    197.65
ElecMinimize: Iter:   4  Etot: -17.280946719728128  |grad|_K:  1.205e-06  alpha:  8.554e-01  linmin: -2.429e-02  t[s]:    198.54
	Linear fluid (dielectric constant: 78.4, screening length: 5.74355 Bohr) occupying 0.977666 of unit cell:	Completed after 0 iterations at t[s]:    199.51
	Linear fluid (dielectric constant: 78.4, screening length: 5.74355 Bohr) occupying 0.977666 of unit cell:	Completed after 0 iterations at t[s]:    201.19
ElecMinimize: Iter:   5  Etot: -17.280946792857254  |grad|_K:  6.747e-07  alpha:  8.564e-01  linmin: -3.876e-02  t[s]:    202.12
	Linear fluid (dielectric constant: 78.4, screening length: 5.74355 Bohr) occupying 0.977666 of unit cell:	Completed after 0 iterations at t[s]:    202.92
	Linear fluid (dielectric constant: 78.4, screening length: 5.74355 Bohr) occupying 0.977666 of unit cell:	Completed after 0 iterations at t[s]:    204.92
ElecMinimize: Iter:   6  Etot: -17.280946815445059  |grad|_K:  3.531e-07  alpha:  8.294e-01  linmin: -7.660e-06  t[s]:    206.19
	Linear fluid (dielectric constant: 78.4, screening length: 5.74355 Bohr) occupying 0.977667 of unit cell:	Completed after 0 iterations at t[s]:    206.98
	Linear fluid (dielectric constant: 78.4, screening length: 5.74355 Bohr) occupying 0.977667 of unit cell:	Completed after 0 iterations at t[s]:    208.57
ElecMinimize: Iter:   7  Etot: -17.280946821972414  |grad|_K:  1.784e-07  alpha:  9.111e-01  linmin:  2.652e-05  t[s]:    209.47
	Linear fluid (dielectric constant: 78.4, screening length: 5.74355 Bohr) occupying 0.977667 of unit cell:	Completed after 0 iterations at t[s]:    210.31
	Linear fluid (dielectric constant: 78.4, screening length: 5.74355 Bohr) occupying 0.977667 of unit cell:	Completed after 0 iterations at t[s]:    212.17
ElecMinimize: Iter:   8  Etot: -17.280946823556736  |grad|_K:  9.599e-08  alpha:  8.666e-01  linmin:  2.114e-04  t[s]:    213.29
ElecMinimize: Converged (|Delta Etot|<1.000000e-08 for 2 iters).
Setting wave functions to eigenvectors of Hamiltonian

# Ionic positions in cartesian coordinates:
ion O   0.000000000000000   0.000000000000000   0.000000000000000 0
ion H   0.000000000000000   1.141802373745195   1.463706128531847 1
ion H   0.000000000000000   1.141802373745195  -1.463706128531847 1


# Forces in Cartesian coordinates:
force O   0.000000000000000  -0.000369806343134   0.000000000000000 0
force H   0.000000000000000   0.000409766069190  -0.000150252321399 1
force H   0.000000000000000   0.000409766069190   0.000150252321399 1

# Energy components:
   A_diel =       -0.0167641091841472
   Eewald =        3.7832190065604623
       EH =       18.3649395463049103
     Eloc =      -45.7083739543975156
      Enl =        2.2327842467581656
      Exc =       -4.3501490735779358
 Exc_core =        0.0650489777314032
       KE =        8.3483485362479222
-------------------------------------
     Etot =      -17.2809468235567358

IonicMinimize: Iter:   2  Etot: -17.280946823556736  |grad|_K:  2.520e-04  alpha:  1.000e+00  linmin: -3.485e-01  t[s]:    214.50

#--- Lowdin population analysis ---
# oxidation-state O -0.805
# oxidation-state H +0.460 +0.460

	Linear fluid (dielectric constant: 78.4, screening length: 5.74355 Bohr) occupying 0.977668 of unit cell:	Completed after 3 iterations at t[s]:    216.27

-------- Electronic minimization -----------
	Linear fluid (dielectric constant: 78.4, screening length: 5.74355 Bohr) occupying 0.977668 of unit cell:	Completed after 0 iterations at t[s]:    218.13
ElecMinimize: Iter:   0  Etot: -17.280947323226862  |grad|_K:  2.421e-06  alpha:  1.000e+00
	Linear fluid (dielectric constant: 78.4, screening length: 5.74355 Bohr) occupying 0.977665 of unit cell:	Completed after 2 iterations at t[s]:    220.45
	Linear fluid (dielectric constant: 78.4, screening length: 5.74355 Bohr) occupying 0.977667 of unit cell:	Completed after 2 iterations at t[s]:    222.78
ElecMinimize: Iter:   1  Etot: -17.280947492609144  |grad|_K:  8.452e-07  alpha:  4.970e-01  linmin:  7.213e-02  t[s]:    223.74
	Linear fluid (dielectric constant: 78.4, screening length: 5.74355 Bohr) occupying 0.977666 of unit cell:	Completed after 0 iterations at t[s]:    224.57
	Linear fluid (dielectric constant: 78.4, screening length: 5.74355 Bohr) occupying 0.977666 of unit cell:	Completed after 0 iterations at t[s]:    226.20
ElecMinimize: Iter:   2  Etot: -17.280947517454059  |grad|_K:  4.013e-07  alpha:  6.285e-01  linmin: -1.202e-05  t[s]:    227.13
	Linear fluid (dielectric constant: 78.4, screening length: 5.74355 Bohr) occupying 0.977666 of unit cell:	Completed after 1 iterations at t[s]:    228.46
	Linear fluid (dielectric constant: 78.4, screening length: 5.74355 Bohr) occupying 0.977666 of unit cell:	Completed after 0 iterations at t[s]:    230.64
ElecMinimize: 	Step increased Etot by 1.382975e-08, reducing alpha to 1.189090e-02.
	Linear fluid (dielectric constant: 78.4, screening length: 5.74355 Bohr) occupying 0.977666 of unit cell:	Completed after 0 iterations at t[s]:    232.64
ElecMinimize: 	Step increased Etot by 1.339324e-08, reducing alpha to 1.189090e-03.
	Linear fluid (dielectric constant: 78.4, screening length: 5.74355 Bohr) occupying 0.977666 of unit cell:	Completed after 0 iterations at t[s]:    234.39
ElecMinimize: 	Step increased Etot by 1.336229e-08, reducing alpha to 1.189090e-04.
ElecMinimize: 	Step failed to reduce Etot after 3 attempts. Quitting step.
ElecMinimize: 	Undoing step.
	Linear fluid (dielectric constant: 78.4, screening length: 5.74355 Bohr) occupying 0.977666 of unit cell:	Completed after 0 iterations at t[s]:    236.12
ElecMinimize: 	Step failed: resetting search direction.
ElecMinimize: Iter:   3  Etot: -17.280947504091962  |grad|_K:  6.334e-07  alpha:  1.189e-04
	Linear fluid (dielectric constant: 78.4, screening length: 5.74355 Bohr) occupying 0.977666 of unit cell:	Completed after 0 iterations at t[s]:    238.05
	Linear fluid (dielectric constant: 78.4, screening length: 5.74355 Bohr) occupying 0.977666 of unit cell:	Completed after 0 iterations at t[s]:    239.73
ElecMinimize: Iter:   4  Etot: -17.280947514620827  |grad|_K:  2.546e-07  alpha:  5.049e-01  linmin: -4.708e-01  t[s]:    240.65
	Linear fluid (dielectric constant: 78.4, screening length: 5.74355 Bohr) occupying 0.977665 of unit cell:	Completed after 0 iterations at t[s]:    241.45
ElecMinimize: 	Predicted alpha/alphaT>3.000000, increasing alphaT to 1.514653e+00.
	Linear fluid (dielectric constant: 78.4, screening length: 5.74355 Bohr) occupying 0.977665 of unit cell:	Completed after 1 iterations at t[s]:    243.52
	Linear fluid (dielectric constant: 78.4, screening length: 5.74355 Bohr) occupying 0.977666 of unit cell:	Completed after 0 iterations at t[s]:    245.18
ElecMinimize: 	Step increased Etot by 3.017107e-10, reducing alpha to 2.311601e-02.
	Linear fluid (dielectric constant: 78.4, screening length: 5.74355 Bohr) occupying 0.977666 of unit cell:	Completed after 0 iterations at t[s]:    246.91
ElecMinimize: Iter:   5  Etot: -17.280947518272072  |grad|_K:  8.696e-07  alpha:  2.312e-02  linmin:  3.997e-01  t[s]:    247.83
ElecMinimize: 	Bad step direction: g.d > 0.
ElecMinimize: 	Undoing step.
	Linear fluid (dielectric constant: 78.4, screening length: 5.74355 Bohr) occupying 0.977666 of unit cell:	Completed after 0 iterations at t[s]:    248.62
ElecMinimize: 	Step failed: resetting search direction.
ElecMinimize: Iter:   6  Etot: -17.280947518272097  |grad|_K:  8.696e-07  alpha:  0.000e+00
ElecMinimize: Converged (|Delta Etot|<1.000000e-08 for 2 iters).
Setting wave functions to eigenvectors of Hamiltonian

# Ionic positions in cartesian coordinates:
ion O   0.000000000000000   0.000000000000000   0.000000000000000 0
ion H   0.000000000000000   1.142694629085337   1.463480601975176 1
ion H   0.000000000000000   1.142694629085337  -1.463480601975176 1


# Forces in Cartesian coordinates:
force O   0.000000000000000  -0.000572868900096   0.000000000000000 0
force H   0.000000000000000   0.000279029508344  -0.000202831577130 1
force H   0.000000000000000   0.000279029508344   0.000202831577130 1

# Energy components:
   A_diel =       -0.0167737357429476
   Eewald =        3.7819805035739988
       EH =       18.3633474067527303
     Eloc =      -45.7047852333798161
      Enl =        2.2324552935462760
      Exc =       -4.3498597208566165
 Exc_core =        0.0650489777314032
       KE =        8.3476389901028725
-------------------------------------
     Etot =      -17.2809475182720966

IonicMinimize: Iter:   3  Etot: -17.280947518272097  |grad|_K:  1.992e-04  alpha:  1.000e+00  linmin: -6.019e-01  t[s]:    250.73

#--- Lowdin population analysis ---
# oxidation-state O -0.805
# oxidation-state H +0.460 +0.460

	Linear fluid (dielectric constant: 78.4, screening length: 5.74355 Bohr) occupying 0.977669 of unit cell:	Completed after 4 iterations at t[s]:    252.66

-------- Electronic minimization -----------
	Linear fluid (dielectric constant: 78.4, screening length: 5.74355 Bohr) occupying 0.977669 of unit cell:	Completed after 0 iterations at t[s]:    254.33
ElecMinimize: Iter:   0  Etot: -17.280947026727041  |grad|_K:  7.216e-06  alpha:  1.000e+00
	Linear fluid (dielectric constant: 78.4, screening length: 5.74355 Bohr) occupying 0.977665 of unit cell:	Completed after 3 iterations at t[s]:    256.92
	Linear fluid (dielectric constant: 78.4, screening length: 5.74355 Bohr) occupying 0.977667 of unit cell:	Completed after 3 iterations at t[s]:    259.47
ElecMinimize: Iter:   1  Etot: -17.280948715215111  |grad|_K:  1.627e-06  alpha:  5.640e-01  linmin:  4.982e-03  t[s]:    260.42
	Linear fluid (dielectric constant: 78.4, screening length: 5.74355 Bohr) occupying 0.977666 of unit cell:	Completed after 0 iterations at t[s]:    261.23
	Linear fluid (dielectric constant: 78.4, screening length: 5.74355 Bohr) occupying 0.977666 of unit cell:	Completed after 0 iterations at t[s]:    262.91
ElecMinimize: Iter:   2  Etot: -17.280948834994419  |grad|_K:  8.777e-07  alpha:  7.883e-01  linmin: -2.968e-06  t[s]:    263.83
	Linear fluid (dielectric constant: 78.4, screening length: 5.74355 Bohr) occupying 0.977666 of unit cell:	Completed after 0 iterations at t[s]:    264.65
	Linear fluid (dielectric constant: 78.4, screening length: 5.74355 Bohr) occupying 0.977666 of unit cell:	Completed after 0 iterations at t[s]:    266.32
ElecMinimize: Iter:   3  Etot: -17.280948873978765  |grad|_K:  4.559e-07  alpha:  8.809e-01  linmin: -5.130e-06  t[s]:    267.24
	Linear fluid (dielectric constant: 78.4, screening length: 5.74355 Bohr) occupying 0.977666 of unit cell:	Completed after 0 iterations at t[s]:    268.08
	Linear fluid (dielectric constant: 78.4, screening length: 5.74355 Bohr) occupying 0.977666 of unit cell:	Completed after 0 iterations at t[s]:    269.75
ElecMinimize: Iter:   4  Etot: -17.280948885044040  |grad|_K:  2.782e-07  alpha:  9.268e-01  linmin: -1.644e-06  t[s]:    270.72
	Linear fluid (dielectric constant: 78.4, screening length: 5.74355 Bohr) occupying 0.977666 of unit cell:	Completed after 0 iterations at t[s]:    271.56
	Linear fluid (dielectric constant: 78.4, screening length: 5.74355 Bohr) occupying 0.977666 of unit cell:	Completed after 0 iterations at t[s]:    273.22
ElecMinimize: Iter:   5  Etot: -17.280948889052322  |grad|_K:  1.604e-07  alpha:  9.011e-01  linmin: -7.956e-05  t[s]:    274.15
	Linear fluid (dielectric constant: 78.4, screening length: 5.74355 Bohr) occupying 0.977665 of unit cell:	Completed after 0 iterations at t[s]:    274.96
	Linear fluid (dielectric constant: 78.4, screening length: 5.74355 Bohr) occupying 0.977665 of unit cell:	Completed after 0 iterations at t[s]:    276.62
ElecMinimize: Iter:   6  Etot: -17.280948890414759  |grad|_K:  8.986e-08  alpha:  9.211e-01  linmin:  1.722e-04  t[s]:    277.53
ElecMinimize: Converged (|Delta Etot|<1.000000e-08 for 2 iters).
Setting wave functions to eigenvectors of Hamiltonian

# Ionic positions in cartesian coordinates:
ion O   0.000000000000000   0.000000000000000   0.000000000000000 0
ion H   0.000000000000000   1.145568342741940   1.461940261338149 1
ion H   0.000000000000000   1.145568342741940  -1.461940261338149 1


# Forces in Cartesian coordinates:
force O   0.000000000000000   0.000638124697561   0.000000000000000 0
force H   0.000000000000000  -0.000088538800919  -0.000259018738819 1
force H   0.000000000000000  -0.000088538800919   0.000259018738819 1

# Energy components:
   A_diel =       -0.0167760366814614
   Eewald =        3.7804018478829198
       EH =       18.3624435766955649
     Eloc =      -45.7022415217363829
      Enl =        2.2325058231022759
      Exc =       -4.3497240335942875
 Exc_core =        0.0650489777314032
       KE =        8.3473924761852096
-------------------------------------
     Etot =      -17.2809488904147592

IonicMinimize: Iter:   4  Etot: -17.280948890414759  |grad|_K:  1.580e-04  alpha:  1.000e+00  linmin: -8.400e-02  t[s]:    278.72

#--- Lowdin population analysis ---
# oxidation-state O -0.805
# oxidation-state H +0.460 +0.460

	Linear fluid (dielectric constant: 78.4, screening length: 5.74355 Bohr) occupying 0.977667 of unit cell:	Completed after 2 iterations at t[s]:    280.23

-------- Electronic minimization -----------
	Linear fluid (dielectric constant: 78.4, screening length: 5.74355 Bohr) occupying 0.977667 of unit cell:	Completed after 0 iterations at t[s]:    281.91
ElecMinimize: Iter:   0  Etot: -17.280948858016664  |grad|_K:  2.613e-06  alpha:  1.000e+00
	Linear fluid (dielectric constant: 78.4, screening length: 5.74355 Bohr) occupying 0.977667 of unit cell:	Completed after 2 iterations at t[s]:    284.30
	Linear fluid (dielectric constant: 78.4, screening length: 5.74355 Bohr) occupying 0.977667 of unit cell:	Completed after 1 iterations at t[s]:    286.50
ElecMinimize: Iter:   1  Etot: -17.280949079037971  |grad|_K:  5.774e-07  alpha:  5.497e-01  linmin:  2.459e-01  t[s]:    287.43
	Linear fluid (dielectric constant: 78.4, screening length: 5.74355 Bohr) occupying 0.977667 of unit cell:	Completed after 0 iterations at t[s]:    288.24
	Linear fluid (dielectric constant: 78.4, screening length: 5.74355 Bohr) occupying 0.977667 of unit cell:	Completed after 0 iterations at t[s]:    289.91
ElecMinimize: Iter:   2  Etot: -17.280949090307800  |grad|_K:  2.241e-07  alpha:  6.337e-01  linmin:  2.713e-05  t[s]:    290.83
	Linear fluid (dielectric constant: 78.4, screening length: 5.74355 Bohr) occupying 0.977667 of unit cell:	Completed after 0 iterations at t[s]:    291.63
	Linear fluid (dielectric constant: 78.4, screening length: 5.74355 Bohr) occupying 0.977667 of unit cell:	Completed after 0 iterations at t[s]:    293.29
ElecMinimize: Iter:   3  Etot: -17.280949092765244  |grad|_K:  1.207e-07  alpha:  8.520e-01  linmin: -6.317e-05  t[s]:    294.22
	Linear fluid (dielectric constant: 78.4, screening length: 5.74355 Bohr) occupying 0.977667 of unit cell:	Completed after 0 iterations at t[s]:    295.03
	Linear fluid (dielectric constant: 78.4, screening length: 5.74355 Bohr) occupying 0.977667 of unit cell:	Completed after 0 iterations at t[s]:    296.70
ElecMinimize: Iter:   4  Etot: -17.280949093562207  |grad|_K:  7.946e-08  alpha:  9.511e-01  linmin: -6.241e-05  t[s]:    297.62
ElecMinimize: Converged (|Delta Etot|<1.000000e-08 for 2 iters).
Setting wave functions to eigenvectors of Hamiltonian

# Ionic positions in cartesian coordinates:
ion O   0.000000000000000   0.000000000000000   0.000000000000000 0
ion H   0.000000000000000   1.146111169642139   1.460961674122457 1
ion H   0.000000000000000   1.146111169642139  -1.460961674122457 1


# Forces in Cartesian coordinates:
force O   0.000000000000000   0.000256572055133   0.000000000000000 0
force H   0.000000000000000   0.000042677049316  -0.000018401729001 1
force H   0.000000000000000   0.000042677049316   0.000018401729001 1

# Energy components:
   A_diel =       -0.0167767023467653
   Eewald =        3.7821427027709822
       EH =       18.3634338630182867
     Eloc =      -45.7051633722267781
      Enl =        2.2324660813983921
      Exc =       -4.3498814001023804
 Exc_core =        0.0650489777314032
       KE =        8.3477807561946502
-------------------------------------
     Etot =      -17.2809490935622065

IonicMinimize: Iter:   5  Etot: -17.280949093562207  |grad|_K:  2.683e-05  alpha:  1.000e+00  linmin: -1.965e-01  t[s]:    298.85
IonicMinimize: Converged (|grad|_K<1.000000e-04).

#--- Lowdin population analysis ---
# oxidation-state O -0.805
# oxidation-state H +0.460 +0.460


Dumping 'H2O.wfns' ... done
Dumping 'H2O.fluidState' ... done
Dumping 'H2O.ionpos' ... done
Dumping 'H2O.nbound' ... done
End date and time: Mon Apr 22 23:41:16 2019  (Duration: 0-0:04:58.96)
Done!
