
*************** JDFTx 1.4.2  ***************

Start date and time: Mon Apr 22 23:54:48 2019
Executable jdftx with command-line: -i vibrations.in
Running on hosts (process indices):  Juans-MBP.lan1 (0)
Divided in process groups (process indices):  0 (0)
Resource initialization completed at t[s]:      0.00
Run totals: 1 processes, 12 threads, 0 GPUs


Input parsed successfully to the following command list (including defaults):

basis kpoint-dependent
coords-type Cartesian
core-overlap-check vector
coulomb-interaction Isolated
coulomb-truncation-embed 0 0 0
davidson-band-ratio 1.1
dump End None
dump-name H3O+.$VAR
elec-cutoff 20 100
elec-eigen-algo Davidson
elec-ex-corr gga-PBE
elec-initial-charge -1.000000
electronic-minimize  \
	dirUpdateScheme      FletcherReeves \
	linminMethod         DirUpdateRecommended \
	nIterations          100 \
	history              15 \
	knormThreshold       0 \
	energyDiffThreshold  1e-08 \
	nEnergyDiff          2 \
	alphaTstart          1 \
	alphaTmin            1e-10 \
	updateTestStepSize   yes \
	alphaTreduceFactor   0.1 \
	alphaTincreaseFactor 3 \
	nAlphaAdjustMax      3 \
	wolfeEnergy          0.0001 \
	wolfeGradient        0.9 \
	fdTest               no
exchange-regularization None
fluid LinearPCM 298.000000 1.013250
fluid-anion F- 1 MeanFieldLJ \
	epsBulk 1 \
	pMol 0 \
	epsInf 1 \
	Pvap 0 \
	sigmaBulk 0 \
	Rvdw 2.24877 \
	Res 0
fluid-cation Na+ 1 MeanFieldLJ \
	epsBulk 1 \
	pMol 0 \
	epsInf 1 \
	Pvap 0 \
	sigmaBulk 0 \
	Rvdw 2.19208 \
	Res 0
fluid-ex-corr lda-TF lda-PZ
fluid-gummel-loop 10 1.000000e-05
fluid-minimize  \
	dirUpdateScheme      PolakRibiere \
	linminMethod         DirUpdateRecommended \
	nIterations          400 \
	history              15 \
	knormThreshold       1e-11 \
	energyDiffThreshold  0 \
	nEnergyDiff          2 \
	alphaTstart          1 \
	alphaTmin            1e-10 \
	updateTestStepSize   yes \
	alphaTreduceFactor   0.1 \
	alphaTincreaseFactor 3 \
	nAlphaAdjustMax      6 \
	wolfeEnergy          0.0001 \
	wolfeGradient        0.9 \
	fdTest               no
fluid-solvent H2O 55.338 ScalarEOS \
	epsBulk 78.4 \
	pMol 0.92466 \
	epsInf 1.77 \
	Pvap 1.06736e-10 \
	sigmaBulk 4.62e-05 \
	Rvdw 2.61727 \
	Res 1.42
forces-output-coords Positions
initial-state H3O+.$VAR
ion O   0.000000000000000   0.000000000000000   0.000000000000000 0
ion H   1.820850182626952  -0.359275526738182  -0.359275526738182 1
ion H  -0.359275526738182   1.820850182626952  -0.359275526738182 1
ion H  -0.359275526738182  -0.359275526738182   1.820850182626952 1
ion-species GBRV/$ID_pbe.uspp
ion-width Ecut
ionic-minimize  \
	dirUpdateScheme      L-BFGS \
	linminMethod         DirUpdateRecommended \
	nIterations          0 \
	history              15 \
	knormThreshold       0.0001 \
	energyDiffThreshold  1e-06 \
	nEnergyDiff          2 \
	alphaTstart          1 \
	alphaTmin            1e-10 \
	updateTestStepSize   yes \
	alphaTreduceFactor   0.1 \
	alphaTincreaseFactor 3 \
	nAlphaAdjustMax      3 \
	wolfeEnergy          0.0001 \
	wolfeGradient        0.9 \
	fdTest               no
kpoint   0.000000000000   0.000000000000   0.000000000000  1.00000000000000
kpoint-folding 1 1 1 
latt-move-scale 1 1 1
latt-scale 1 1 1 
lattice Cubic 15
lattice-minimize  \
	dirUpdateScheme      L-BFGS \
	linminMethod         DirUpdateRecommended \
	nIterations          0 \
	history              15 \
	knormThreshold       0 \
	energyDiffThreshold  1e-06 \
	nEnergyDiff          2 \
	alphaTstart          1 \
	alphaTmin            1e-10 \
	updateTestStepSize   yes \
	alphaTreduceFactor   0.1 \
	alphaTincreaseFactor 3 \
	nAlphaAdjustMax      3 \
	wolfeEnergy          0.0001 \
	wolfeGradient        0.9 \
	fdTest               no
lcao-params -1 1e-06 0.001
pcm-variant CANDLE
spintype no-spin
subspace-rotation-factor 1 yes
symmetries automatic
symmetry-threshold 0.0001
vibrations \
	dr 0.01\
	centralDiff yes\
	useConstraints no\
	translationSym yes\
	rotationSym yes\
	omegaMin 0.0002\
	T 298\
	omegaResolution 0.0001



---------- Setting up symmetries ----------

Found 48 point-group symmetries of the bravais lattice
Found 6 space-group symmetries with basis
Applied RMS atom displacement 0 bohrs to make symmetries exact.
Applied RMS atom displacement 0 bohrs to make symmetries exact.

---------- Initializing the Grid ----------
R = 
[         15          0          0  ]
[          0         15          0  ]
[          0          0         15  ]
unit cell volume = 3375
G =
[   0.418879          0          0  ]
[          0   0.418879          0  ]
[          0          0   0.418879  ]
Minimum fftbox size, Smin = [  68  68  68  ]
Chosen fftbox size, S = [  70  70  70  ]

---------- Initializing tighter grid for wavefunction operations ----------
R = 
[         15          0          0  ]
[          0         15          0  ]
[          0          0         15  ]
unit cell volume = 3375
G =
[   0.418879          0          0  ]
[          0   0.418879          0  ]
[          0          0   0.418879  ]
Minimum fftbox size, Smin = [  64  64  64  ]
Chosen fftbox size, S = [  64  64  64  ]

---------- Exchange Correlation functional ----------
Initalized PBE GGA exchange.
Initalized PBE GGA correlation.

---------- Setting up pseudopotentials ----------
Width of ionic core gaussian charges (only for fluid interactions / plotting) set to 0.397384

Reading pseudopotential file '/Users/juanmendezvalderrama/Documents/JDFTX/build/pseudopotentials/GBRV/o_pbe.uspp':
  Title: O.  Created by USPP 7.3.6 on 3-2-2014
  Reference state energy: -15.894388.  6 valence electrons in orbitals:
    |200>  occupation: 2  eigenvalue: -0.878823
    |210>  occupation: 4  eigenvalue: -0.332131
  lMax: 2  lLocal: 2  QijEcut: 6
  5 projectors sampled on a log grid with 511 points:
    l: 0  eig: -0.878823  rCut: 1.25
    l: 0  eig: 0.000000  rCut: 1.25
    l: 1  eig: -0.332132  rCut: 1.25
    l: 1  eig: 0.000000  rCut: 1.25
    l: 2  eig: 1.000000  rCut: 1.25
  Partial core density with radius 0.7
  Transforming core density to a uniform radial grid of dG=0.02 with 1275 points.
  Transforming local potential to a uniform radial grid of dG=0.02 with 1275 points.
  Transforming nonlocal projectors to a uniform radial grid of dG=0.02 with 432 points.
  Transforming density augmentations to a uniform radial grid of dG=0.02 with 1275 points.
  Transforming atomic orbitals to a uniform radial grid of dG=0.02 with 432 points.
  Core radius for overlap checks: 1.25 bohrs.

Reading pseudopotential file '/Users/juanmendezvalderrama/Documents/JDFTX/build/pseudopotentials/GBRV/h_pbe.uspp':
  Title: H.  Created by USPP 7.3.6 on 2-4-15
  Reference state energy: -0.458849.  1 valence electrons in orbitals:
    |100>  occupation: 1  eigenvalue: -0.238595
  lMax: 0  lLocal: 1  QijEcut: 6
  2 projectors sampled on a log grid with 395 points:
    l: 0  eig: -0.238595  rCut: 1.2
    l: 0  eig: 1.000000  rCut: 1.2
  Transforming local potential to a uniform radial grid of dG=0.02 with 1275 points.
  Transforming nonlocal projectors to a uniform radial grid of dG=0.02 with 432 points.
  Transforming density augmentations to a uniform radial grid of dG=0.02 with 1275 points.
  Transforming atomic orbitals to a uniform radial grid of dG=0.02 with 432 points.
  Core radius for overlap checks: 1.20 bohrs.

Initialized 2 species with 4 total atoms.

Folded 1 k-points by 1x1x1 to 1 k-points.

---------- Setting up k-points, bands, fillings ----------
No reducable k-points. 
Computing the number of bands and number of electrons
Calculating initial fillings.
nElectrons:   8.000000   nBands: 4   nStates: 1

----- Setting up reduced wavefunction bases (one per k-point) -----
average nbasis = 14363.000 , ideal nbasis = 14418.257

---------- Setting up coulomb interaction ----------
Fluid mode embedding: using embedded box, but periodic Coulomb kernel.
(Fluid response is responsible for (approximate) separation between periodic images.)
Setting up double-sized grid for truncated Coulomb potentials:
R = 
[         30          0          0  ]
[          0         30          0  ]
[          0          0         30  ]
unit cell volume = 27000
G =
[    0.20944          0          0  ]
[          0    0.20944          0  ]
[          0          0    0.20944  ]
Chosen fftbox size, S = [  140  140  140  ]
Integer grid location selected as the embedding center:
   Grid: [  0  0  0  ]
   Lattice: [  0  0  0  ]
   Cartesian: [  0  0  0  ]
Constructing Wigner-Seitz cell: 6 faces (6 quadrilaterals, 0 hexagons)
Range-separation parameter for embedded mesh potentials due to point charges: 0.583992 bohrs.

Initializing van der Waals corrections
	NOTE: vdW corrections apply only for interactions with fluid.
	 O:  C6:   12.14 Eh-a0^6  R0: 2.536 a0
	 H:  C6:    2.43 Eh-a0^6  R0: 1.892 a0

---------- Setting up ewald sum ----------
Optimum gaussian width for ewald sums = 9.499221 bohr.
Real space sum over 1331 unit cells with max indices [  5  5  5  ]
Reciprocal space sum over 2197 terms with max indices [  6  6  6  ]

---------- Allocating electronic variables ----------
Initializing wave functions:  reading from 'H3O+.wfns'
----- createFluidSolver() ----- (Fluid-side solver setup)
   Initializing fluid molecule 'H2O'
     Initializing site 'O'
       Electron density: proportional to exp(-r/0.36935)*erfc((r-0.51523)/0.36823) with norm 6.826
       Charge density: gaussian nuclear width 0.478731 with net site charge 0.826
       Polarizability: cuspless exponential with width 0.32 and norm 3.73
       Hard sphere radius: 2.57003 bohrs
       Positions in reference frame:
         [ +0.000000 +0.000000 +0.000000 ]
     Initializing site 'H'
       Electron density: proportional to exp(-r/0.34641)*erfc((r-0)/0.390882) with norm 0.587
       Charge density: gaussian nuclear width 0.377945 with net site charge -0.413
       Polarizability: cuspless exponential with width 0.39 and norm 3.3
       Positions in reference frame:
         [ +0.000000 -1.441945 +1.122523 ]
         [ +0.000000 +1.441945 +1.122523 ]
     Net charge: 0   dipole magnitude: 0.927204
     Initializing spherical shell mfKernel with radius 2.61727 Bohr
     deltaS corrections:
       site 'O': -7.54299
       site 'H': -6.83917
   Initializing fluid molecule 'Na+'
     Initializing site 'Na'
       Electron density: proportional to exp(-r/0.19682)*erfc((r-0.71491)/0.41314) with norm 8.1383
       Charge density: gaussian nuclear width 0.365347 with net site charge -1
       Hard sphere radius: 1.86327 bohrs
       Positions in reference frame:
         [ +0.000000 +0.000000 +0.000000 ]
     Net charge: -1   dipole magnitude: 0
     Initializing gaussian mfKernel with width: 1.55004 Bohr
     deltaS corrections:
       site 'Na': -22.3555
   Initializing fluid molecule 'F-'
     Initializing site 'F'
       Electron density: proportional to exp(-r/0.38886)*erfc((r-0)/0.438782) with norm 8
       Charge density: gaussian nuclear width 0.374796 with net site charge 1
       Hard sphere radius: 2.39995 bohrs
       Positions in reference frame:
         [ +0.000000 +0.000000 +0.000000 ]
     Net charge: 1   dipole magnitude: 0
     Initializing gaussian mfKernel with width: 1.59012 Bohr
     deltaS corrections:
       site 'F': -9.04335

Correction to mu due to finite nuclear width = -0.000330734
   Cavity determined by nc: 0.00142 and sigma: 0.707107
   Nonlocal vdW cavity from gaussian model electron density with norm = 8 and sigma = 0.993594 bohr
   Charge asymmetry in cavity with sensitivity pCavity = 36.5 e-bohr/Eh
   Electrostatic cavity expanded by eta = 1.46 bohrs
   Weighted density cavitation model constrained by Nbulk: 0.0049383 bohr^-3, Pvap: 3.14029 kPa, Rvdw: 2.61727 bohr and sigmaBulk: 4.62e-05 Eh/bohr^2 at T: 298 K.
   Weighted density dispersion model using vdW pair potentials with single solvent site with sqrtC6eff: 0.77 SI.
Reading fluid state from 'H3O+.fluidState'


---- Citations for features of the code used in this run ----

   Software package:
      R. Sundararaman, K. Letchworth-Weaver, K.A. Schwarz, D. Gunceler, Y. Ozhabes and T.A. Arias, 'JDFTx: software for joint density-functional theory', SoftwareX 6, 278 (2017)

   gga-PBE exchange-correlation functional:
      J.P. Perdew, K. Burke and M. Ernzerhof, Phys. Rev. Lett. 77, 3865 (1996)

   Pseudopotentials:
      KF Garrity, JW Bennett, KM Rabe and D Vanderbilt, Comput. Mater. Sci. 81, 446 (2014)

   Truncated Coulomb potentials:
      R. Sundararaman and T.A. Arias, Phys. Rev. B 87, 165122 (2013)

   Van der Waals correction pair-potentials:
      S. Grimme, J. Comput. Chem. 27, 1787 (2006)

   Charge-asymmetric nonlocally-determined local-electric (CANDLE) solvation model:
      R. Sundararaman and W.A. Goddard III, J. Chem. Phys. 142, 064107 (2015)

   Total energy minimization:
      T.A. Arias, M.C. Payne and J.D. Joannopoulos, Phys. Rev. Lett. 69, 1077 (1992)

This list may not be complete. Please suggest additional citations or
report any other bugs at https://github.com/shankar1729/jdftx/issues

Initialization completed successfully at t[s]:      3.49

------ Vibrations::calculate() -------
WARNING: Vibrations module is experimental. Please report bugs!
Compare results with and without symmetries and report discrepancies.
Degrees of freedom: 12 total, 3 symmetry-independent.
	Linear fluid (dielectric constant: 78.4, screening length: 5.74355 Bohr) occupying 0.979105 of unit cell:	Completed after 0 iterations at t[s]:      5.61

-------- Electronic minimization -----------
	Linear fluid (dielectric constant: 78.4, screening length: 5.74355 Bohr) occupying 0.979105 of unit cell:	Completed after 0 iterations at t[s]:      7.31
ElecMinimize: Iter:   0  Etot: -17.705479972165680  |grad|_K:  4.211e-07  alpha:  1.000e+00
	Linear fluid (dielectric constant: 78.4, screening length: 5.74355 Bohr) occupying 0.979104 of unit cell:	Completed after 2 iterations at t[s]:     10.00
	Linear fluid (dielectric constant: 78.4, screening length: 5.74355 Bohr) occupying 0.979105 of unit cell:	Completed after 0 iterations at t[s]:     11.79
ElecMinimize: 	Step increased Etot by 1.124463e-08, reducing alpha to 2.230353e-02.
	Linear fluid (dielectric constant: 78.4, screening length: 5.74355 Bohr) occupying 0.979105 of unit cell:	Completed after 0 iterations at t[s]:     13.48
ElecMinimize: 	Step increased Etot by 1.091142e-08, reducing alpha to 2.230353e-03.
	Linear fluid (dielectric constant: 78.4, screening length: 5.74355 Bohr) occupying 0.979105 of unit cell:	Completed after 0 iterations at t[s]:     15.12
ElecMinimize: 	Step increased Etot by 1.095263e-08, reducing alpha to 2.230353e-04.
ElecMinimize: 	Step failed to reduce Etot after 3 attempts. Quitting step.
ElecMinimize: 	Undoing step.
	Linear fluid (dielectric constant: 78.4, screening length: 5.74355 Bohr) occupying 0.979105 of unit cell:	Completed after 0 iterations at t[s]:     16.82
ElecMinimize: 	Step failed along negative gradient direction.
ElecMinimize: Probably at roundoff error limit. (Stopping)
Setting wave functions to eigenvectors of Hamiltonian
Completed 1 of 7 configurations.
	Linear fluid (dielectric constant: 78.4, screening length: 5.74355 Bohr) occupying 0.979099 of unit cell:	Completed after 7 iterations at t[s]:     21.81

-------- Electronic minimization -----------
	Linear fluid (dielectric constant: 78.4, screening length: 5.74355 Bohr) occupying 0.979099 of unit cell:	Completed after 0 iterations at t[s]:     23.80
ElecMinimize: Iter:   0  Etot: -17.705449124626771  |grad|_K:  1.864e-05  alpha:  1.000e+00
	Linear fluid (dielectric constant: 78.4, screening length: 5.74355 Bohr) occupying 0.979087 of unit cell:	Completed after 6 iterations at t[s]:     27.62
	Linear fluid (dielectric constant: 78.4, screening length: 5.74355 Bohr) occupying 0.979092 of unit cell:	Completed after 4 iterations at t[s]:     30.93
ElecMinimize: Iter:   1  Etot: -17.705459423456652  |grad|_K:  4.812e-06  alpha:  5.157e-01  linmin:  4.835e-03  t[s]:     31.96
	Linear fluid (dielectric constant: 78.4, screening length: 5.74355 Bohr) occupying 0.979091 of unit cell:	Completed after 2 iterations at t[s]:     33.36
	Linear fluid (dielectric constant: 78.4, screening length: 5.74355 Bohr) occupying 0.979091 of unit cell:	Completed after 0 iterations at t[s]:     35.08
ElecMinimize: Iter:   2  Etot: -17.705460108436057  |grad|_K:  2.319e-06  alpha:  5.158e-01  linmin: -1.628e-02  t[s]:     36.07
	Linear fluid (dielectric constant: 78.4, screening length: 5.74355 Bohr) occupying 0.979089 of unit cell:	Completed after 2 iterations at t[s]:     37.45
	Linear fluid (dielectric constant: 78.4, screening length: 5.74355 Bohr) occupying 0.979089 of unit cell:	Completed after 0 iterations at t[s]:     39.03
ElecMinimize: Iter:   3  Etot: -17.705460343434922  |grad|_K:  1.174e-06  alpha:  7.311e-01  linmin: -9.124e-02  t[s]:     39.90
	Linear fluid (dielectric constant: 78.4, screening length: 5.74355 Bohr) occupying 0.979088 of unit cell:	Completed after 2 iterations at t[s]:     41.25
	Linear fluid (dielectric constant: 78.4, screening length: 5.74355 Bohr) occupying 0.979088 of unit cell:	Completed after 0 iterations at t[s]:     42.94
ElecMinimize: Iter:   4  Etot: -17.705460385513426  |grad|_K:  8.872e-07  alpha:  5.589e-01  linmin: -1.149e-01  t[s]:     44.05
	Linear fluid (dielectric constant: 78.4, screening length: 5.74355 Bohr) occupying 0.979088 of unit cell:	Completed after 0 iterations at t[s]:     45.06
	Linear fluid (dielectric constant: 78.4, screening length: 5.74355 Bohr) occupying 0.979088 of unit cell:	Completed after 0 iterations at t[s]:     47.11
ElecMinimize: Iter:   5  Etot: -17.705460415396786  |grad|_K:  7.065e-07  alpha:  5.732e-01  linmin:  1.059e-06  t[s]:     48.22
	Linear fluid (dielectric constant: 78.4, screening length: 5.74355 Bohr) occupying 0.979089 of unit cell:	Completed after 2 iterations at t[s]:     49.98
	Linear fluid (dielectric constant: 78.4, screening length: 5.74355 Bohr) occupying 0.979089 of unit cell:	Completed after 0 iterations at t[s]:     51.77
ElecMinimize: 	Step increased Etot by 5.404726e-09, reducing alpha to 1.257024e-02.
	Linear fluid (dielectric constant: 78.4, screening length: 5.74355 Bohr) occupying 0.979088 of unit cell:	Completed after 0 iterations at t[s]:     54.07
ElecMinimize: 	Step increased Etot by 3.543875e-09, reducing alpha to 1.257024e-03.
	Linear fluid (dielectric constant: 78.4, screening length: 5.74355 Bohr) occupying 0.979088 of unit cell:	Completed after 0 iterations at t[s]:     56.14
ElecMinimize: 	Step increased Etot by 3.051138e-09, reducing alpha to 1.257024e-04.
ElecMinimize: 	Step failed to reduce Etot after 3 attempts. Quitting step.
ElecMinimize: 	Undoing step.
	Linear fluid (dielectric constant: 78.4, screening length: 5.74355 Bohr) occupying 0.979088 of unit cell:	Completed after 0 iterations at t[s]:     58.17
ElecMinimize: 	Step failed: resetting search direction.
ElecMinimize: Iter:   6  Etot: -17.705460412351123  |grad|_K:  1.134e-06  alpha:  1.257e-04
	Linear fluid (dielectric constant: 78.4, screening length: 5.74355 Bohr) occupying 0.979088 of unit cell:	Completed after 2 iterations at t[s]:     60.80
	Linear fluid (dielectric constant: 78.4, screening length: 5.74355 Bohr) occupying 0.979088 of unit cell:	Completed after 0 iterations at t[s]:     62.56
ElecMinimize: Iter:   7  Etot: -17.705460422468846  |grad|_K:  1.010e-06  alpha:  2.029e-01  linmin:  5.965e-01  t[s]:     63.53
	Linear fluid (dielectric constant: 78.4, screening length: 5.74355 Bohr) occupying 0.979089 of unit cell:	Completed after 0 iterations at t[s]:     64.57
	Linear fluid (dielectric constant: 78.4, screening length: 5.74355 Bohr) occupying 0.979089 of unit cell:	Completed after 0 iterations at t[s]:     66.48
ElecMinimize: Iter:   8  Etot: -17.705460433345699  |grad|_K:  1.034e-06  alpha:  4.067e-01  linmin: -1.695e-05  t[s]:     67.62
	Linear fluid (dielectric constant: 78.4, screening length: 5.74355 Bohr) occupying 0.979089 of unit cell:	Completed after 2 iterations at t[s]:     69.18
	Linear fluid (dielectric constant: 78.4, screening length: 5.74355 Bohr) occupying 0.979089 of unit cell:	Completed after 0 iterations at t[s]:     70.89
ElecMinimize: 	Step increased Etot by 7.298041e-09, reducing alpha to 9.395429e-03.
	Linear fluid (dielectric constant: 78.4, screening length: 5.74355 Bohr) occupying 0.979089 of unit cell:	Completed after 0 iterations at t[s]:     72.91
ElecMinimize: Iter:   9  Etot: -17.705460437115882  |grad|_K:  9.137e-07  alpha:  9.395e-03  linmin:  6.998e-01  t[s]:     73.84
ElecMinimize: 	Bad step direction: g.d > 0.
ElecMinimize: 	Undoing step.
	Linear fluid (dielectric constant: 78.4, screening length: 5.74355 Bohr) occupying 0.979089 of unit cell:	Completed after 0 iterations at t[s]:     74.63
ElecMinimize: 	Step failed: resetting search direction.
ElecMinimize: Iter:  10  Etot: -17.705460437115885  |grad|_K:  9.137e-07  alpha:  0.000e+00
ElecMinimize: Converged (|Delta Etot|<1.000000e-08 for 2 iters).
Setting wave functions to eigenvectors of Hamiltonian
Completed 2 of 7 configurations.
	Linear fluid (dielectric constant: 78.4, screening length: 5.74355 Bohr) occupying 0.979101 of unit cell:	Completed after 8 iterations at t[s]:     79.68

-------- Electronic minimization -----------
	Linear fluid (dielectric constant: 78.4, screening length: 5.74355 Bohr) occupying 0.979101 of unit cell:	Completed after 0 iterations at t[s]:     81.76
ElecMinimize: Iter:   0  Etot: -17.705413264294748  |grad|_K:  3.752e-05  alpha:  1.000e+00
	Linear fluid (dielectric constant: 78.4, screening length: 5.74355 Bohr) occupying 0.979126 of unit cell:	Completed after 6 iterations at t[s]:     85.01
	Linear fluid (dielectric constant: 78.4, screening length: 5.74355 Bohr) occupying 0.979114 of unit cell:	Completed after 6 iterations at t[s]:     88.07
ElecMinimize: Iter:   1  Etot: -17.705454713167239  |grad|_K:  1.011e-05  alpha:  5.122e-01  linmin:  1.317e-03  t[s]:     89.06
	Linear fluid (dielectric constant: 78.4, screening length: 5.74355 Bohr) occupying 0.979117 of unit cell:	Completed after 2 iterations at t[s]:     90.70
	Linear fluid (dielectric constant: 78.4, screening length: 5.74355 Bohr) occupying 0.979117 of unit cell:	Completed after 0 iterations at t[s]:     94.00
ElecMinimize: Iter:   2  Etot: -17.705457643494427  |grad|_K:  4.786e-06  alpha:  4.990e-01  linmin:  6.031e-03  t[s]:     95.44
	Linear fluid (dielectric constant: 78.4, screening length: 5.74355 Bohr) occupying 0.979120 of unit cell:	Completed after 2 iterations at t[s]:     97.49
	Linear fluid (dielectric constant: 78.4, screening length: 5.74355 Bohr) occupying 0.979121 of unit cell:	Completed after 2 iterations at t[s]:    100.33
ElecMinimize: Iter:   3  Etot: -17.705458568393610  |grad|_K:  2.393e-06  alpha:  7.075e-01  linmin: -2.563e-02  t[s]:    101.38
	Linear fluid (dielectric constant: 78.4, screening length: 5.74355 Bohr) occupying 0.979122 of unit cell:	Completed after 0 iterations at t[s]:    102.23
	Linear fluid (dielectric constant: 78.4, screening length: 5.74355 Bohr) occupying 0.979122 of unit cell:	Completed after 0 iterations at t[s]:    104.22
ElecMinimize: Iter:   4  Etot: -17.705458835925150  |grad|_K:  1.288e-06  alpha:  7.950e-01  linmin:  2.268e-05  t[s]:    105.30
	Linear fluid (dielectric constant: 78.4, screening length: 5.74355 Bohr) occupying 0.979122 of unit cell:	Completed after 2 iterations at t[s]:    106.70
	Linear fluid (dielectric constant: 78.4, screening length: 5.74355 Bohr) occupying 0.979122 of unit cell:	Completed after 0 iterations at t[s]:    108.58
ElecMinimize: Iter:   5  Etot: -17.705458869749460  |grad|_K:  8.688e-07  alpha:  5.000e-01  linmin: -9.427e-02  t[s]:    109.65
	Linear fluid (dielectric constant: 78.4, screening length: 5.74355 Bohr) occupying 0.979121 of unit cell:	Completed after 0 iterations at t[s]:    110.54
	Linear fluid (dielectric constant: 78.4, screening length: 5.74355 Bohr) occupying 0.979121 of unit cell:	Completed after 0 iterations at t[s]:    112.25
ElecMinimize: Iter:   6  Etot: -17.705458897352329  |grad|_K:  5.179e-07  alpha:  5.679e-01  linmin: -1.320e-06  t[s]:    113.81
	Linear fluid (dielectric constant: 78.4, screening length: 5.74355 Bohr) occupying 0.979121 of unit cell:	Completed after 1 iterations at t[s]:    115.44
	Linear fluid (dielectric constant: 78.4, screening length: 5.74355 Bohr) occupying 0.979121 of unit cell:	Completed after 0 iterations at t[s]:    117.20
ElecMinimize: 	Step increased Etot by 7.397496e-09, reducing alpha to 1.511582e-02.
	Linear fluid (dielectric constant: 78.4, screening length: 5.74355 Bohr) occupying 0.979121 of unit cell:	Completed after 0 iterations at t[s]:    119.02
ElecMinimize: 	Step increased Etot by 6.841113e-09, reducing alpha to 1.511582e-03.
	Linear fluid (dielectric constant: 78.4, screening length: 5.74355 Bohr) occupying 0.979121 of unit cell:	Completed after 0 iterations at t[s]:    121.09
ElecMinimize: 	Step increased Etot by 6.840892e-09, reducing alpha to 1.511582e-04.
ElecMinimize: 	Step failed to reduce Etot after 3 attempts. Quitting step.
ElecMinimize: 	Undoing step.
	Linear fluid (dielectric constant: 78.4, screening length: 5.74355 Bohr) occupying 0.979121 of unit cell:	Completed after 0 iterations at t[s]:    122.91
ElecMinimize: 	Step failed: resetting search direction.
ElecMinimize: Iter:   7  Etot: -17.705458890511490  |grad|_K:  6.735e-07  alpha:  1.512e-04
	Linear fluid (dielectric constant: 78.4, screening length: 5.74355 Bohr) occupying 0.979121 of unit cell:	Completed after 1 iterations at t[s]:    125.17
	Linear fluid (dielectric constant: 78.4, screening length: 5.74355 Bohr) occupying 0.979121 of unit cell:	Completed after 0 iterations at t[s]:    127.22
ElecMinimize: Iter:   8  Etot: -17.705458895335411  |grad|_K:  2.299e-07  alpha:  3.250e-01  linmin: -2.701e-01  t[s]:    128.29
	Linear fluid (dielectric constant: 78.4, screening length: 5.74355 Bohr) occupying 0.979121 of unit cell:	Completed after 0 iterations at t[s]:    129.17
	Linear fluid (dielectric constant: 78.4, screening length: 5.74355 Bohr) occupying 0.979121 of unit cell:	Completed after 0 iterations at t[s]:    131.24
ElecMinimize: Iter:   9  Etot: -17.705458897771855  |grad|_K:  1.609e-07  alpha:  7.321e-01  linmin:  4.748e-04  t[s]:    132.76
ElecMinimize: Converged (|Delta Etot|<1.000000e-08 for 2 iters).
Setting wave functions to eigenvectors of Hamiltonian
Completed 3 of 7 configurations.
	Linear fluid (dielectric constant: 78.4, screening length: 5.74355 Bohr) occupying 0.979117 of unit cell:	Completed after 6 iterations at t[s]:    139.13

-------- Electronic minimization -----------
	Linear fluid (dielectric constant: 78.4, screening length: 5.74355 Bohr) occupying 0.979117 of unit cell:	Completed after 0 iterations at t[s]:    142.13
ElecMinimize: Iter:   0  Etot: -17.705458002314039  |grad|_K:  2.392e-05  alpha:  1.000e+00
	Linear fluid (dielectric constant: 78.4, screening length: 5.74355 Bohr) occupying 0.979107 of unit cell:	Completed after 7 iterations at t[s]:    147.01
	Linear fluid (dielectric constant: 78.4, screening length: 5.74355 Bohr) occupying 0.979111 of unit cell:	Completed after 3 iterations at t[s]:    150.12
ElecMinimize: Iter:   1  Etot: -17.705475623412426  |grad|_K:  6.044e-06  alpha:  5.354e-01  linmin:  2.917e-03  t[s]:    151.11
	Linear fluid (dielectric constant: 78.4, screening length: 5.74355 Bohr) occupying 0.979110 of unit cell:	Completed after 2 iterations at t[s]:    152.70
	Linear fluid (dielectric constant: 78.4, screening length: 5.74355 Bohr) occupying 0.979110 of unit cell:	Completed after 0 iterations at t[s]:    154.49
ElecMinimize: Iter:   2  Etot: -17.705476809478807  |grad|_K:  3.090e-06  alpha:  5.647e-01  linmin: -2.828e-02  t[s]:    155.53
	Linear fluid (dielectric constant: 78.4, screening length: 5.74355 Bohr) occupying 0.979109 of unit cell:	Completed after 2 iterations at t[s]:    156.96
	Linear fluid (dielectric constant: 78.4, screening length: 5.74355 Bohr) occupying 0.979109 of unit cell:	Completed after 0 iterations at t[s]:    158.52
ElecMinimize: Iter:   3  Etot: -17.705477218569669  |grad|_K:  1.484e-06  alpha:  7.213e-01  linmin: -6.113e-02  t[s]:    159.44
	Linear fluid (dielectric constant: 78.4, screening length: 5.74355 Bohr) occupying 0.979108 of unit cell:	Completed after 1 iterations at t[s]:    160.66
	Linear fluid (dielectric constant: 78.4, screening length: 5.74355 Bohr) occupying 0.979108 of unit cell:	Completed after 0 iterations at t[s]:    162.27
ElecMinimize: Iter:   4  Etot: -17.705477298787795  |grad|_K:  8.217e-07  alpha:  6.276e-01  linmin: -1.265e-01  t[s]:    163.16
	Linear fluid (dielectric constant: 78.4, screening length: 5.74355 Bohr) occupying 0.979108 of unit cell:	Completed after 0 iterations at t[s]:    164.13
	Linear fluid (dielectric constant: 78.4, screening length: 5.74355 Bohr) occupying 0.979108 of unit cell:	Completed after 0 iterations at t[s]:    166.22
ElecMinimize: Iter:   5  Etot: -17.705477325353908  |grad|_K:  5.126e-07  alpha:  6.172e-01  linmin: -1.066e-01  t[s]:    167.37
	Linear fluid (dielectric constant: 78.4, screening length: 5.74355 Bohr) occupying 0.979109 of unit cell:	Completed after 0 iterations at t[s]:    168.39
	Linear fluid (dielectric constant: 78.4, screening length: 5.74355 Bohr) occupying 0.979109 of unit cell:	Completed after 0 iterations at t[s]:    170.70
ElecMinimize: Iter:   6  Etot: -17.705477338136895  |grad|_K:  3.071e-07  alpha:  7.511e-01  linmin:  3.799e-06  t[s]:    172.18
	Linear fluid (dielectric constant: 78.4, screening length: 5.74355 Bohr) occupying 0.979109 of unit cell:	Completed after 1 iterations at t[s]:    174.39
	Linear fluid (dielectric constant: 78.4, screening length: 5.74355 Bohr) occupying 0.979109 of unit cell:	Completed after 0 iterations at t[s]:    176.72
ElecMinimize: 	Step increased Etot by 1.638382e-08, reducing alpha to 1.007939e-02.
	Linear fluid (dielectric constant: 78.4, screening length: 5.74355 Bohr) occupying 0.979109 of unit cell:	Completed after 0 iterations at t[s]:    179.07
ElecMinimize: 	Step increased Etot by 1.609548e-08, reducing alpha to 1.007939e-03.
	Linear fluid (dielectric constant: 78.4, screening length: 5.74355 Bohr) occupying 0.979109 of unit cell:	Completed after 0 iterations at t[s]:    180.77
ElecMinimize: 	Step increased Etot by 1.607350e-08, reducing alpha to 1.007939e-04.
ElecMinimize: 	Step failed to reduce Etot after 3 attempts. Quitting step.
ElecMinimize: 	Undoing step.
	Linear fluid (dielectric constant: 78.4, screening length: 5.74355 Bohr) occupying 0.979109 of unit cell:	Completed after 0 iterations at t[s]:    182.51
ElecMinimize: 	Step failed: resetting search direction.
ElecMinimize: Iter:   7  Etot: -17.705477322063643  |grad|_K:  7.596e-07  alpha:  1.008e-04
	Linear fluid (dielectric constant: 78.4, screening length: 5.74355 Bohr) occupying 0.979108 of unit cell:	Completed after 2 iterations at t[s]:    185.59
	Linear fluid (dielectric constant: 78.4, screening length: 5.74355 Bohr) occupying 0.979109 of unit cell:	Completed after 0 iterations at t[s]:    188.70
ElecMinimize: Iter:   8  Etot: -17.705477337113603  |grad|_K:  4.752e-07  alpha:  3.446e-01  linmin:  5.878e-01  t[s]:    189.60
	Linear fluid (dielectric constant: 78.4, screening length: 5.74355 Bohr) occupying 0.979109 of unit cell:	Completed after 0 iterations at t[s]:    190.37
	Linear fluid (dielectric constant: 78.4, screening length: 5.74355 Bohr) occupying 0.979109 of unit cell:	Completed after 0 iterations at t[s]:    191.96
ElecMinimize: Iter:   9  Etot: -17.705477343526692  |grad|_K:  3.956e-07  alpha:  9.665e-01  linmin:  1.751e-04  t[s]:    192.85
	Linear fluid (dielectric constant: 78.4, screening length: 5.74355 Bohr) occupying 0.979109 of unit cell:	Completed after 2 iterations at t[s]:    194.21
	Linear fluid (dielectric constant: 78.4, screening length: 5.74355 Bohr) occupying 0.979109 of unit cell:	Completed after 0 iterations at t[s]:    195.87
ElecMinimize: 	Step increased Etot by 7.781281e-09, reducing alpha to 1.107651e-02.
	Linear fluid (dielectric constant: 78.4, screening length: 5.74355 Bohr) occupying 0.979109 of unit cell:	Completed after 0 iterations at t[s]:    197.56
ElecMinimize: 	Step increased Etot by 2.740919e-09, reducing alpha to 1.107651e-03.
	Linear fluid (dielectric constant: 78.4, screening length: 5.74355 Bohr) occupying 0.979109 of unit cell:	Completed after 0 iterations at t[s]:    199.65
ElecMinimize: 	Step increased Etot by 2.246846e-09, reducing alpha to 1.107651e-04.
ElecMinimize: 	Step failed to reduce Etot after 3 attempts. Quitting step.
ElecMinimize: 	Undoing step.
	Linear fluid (dielectric constant: 78.4, screening length: 5.74355 Bohr) occupying 0.979109 of unit cell:	Completed after 0 iterations at t[s]:    202.29
ElecMinimize: 	Step failed: resetting search direction.
ElecMinimize: Iter:  10  Etot: -17.705477341285409  |grad|_K:  1.251e-06  alpha:  1.108e-04
	Linear fluid (dielectric constant: 78.4, screening length: 5.74355 Bohr) occupying 0.979108 of unit cell:	Completed after 2 iterations at t[s]:    204.76
	Linear fluid (dielectric constant: 78.4, screening length: 5.74355 Bohr) occupying 0.979109 of unit cell:	Completed after 2 iterations at t[s]:    206.93
ElecMinimize: 	Step increased Etot by 1.166734e-08, reducing alpha to 2.296727e-02.
	Linear fluid (dielectric constant: 78.4, screening length: 5.74355 Bohr) occupying 0.979109 of unit cell:	Completed after 0 iterations at t[s]:    208.82
ElecMinimize: 	Step increased Etot by 4.789733e-09, reducing alpha to 2.296727e-03.
	Linear fluid (dielectric constant: 78.4, screening length: 5.74355 Bohr) occupying 0.979109 of unit cell:	Completed after 0 iterations at t[s]:    210.62
ElecMinimize: 	Step increased Etot by 4.555076e-09, reducing alpha to 2.296727e-04.
ElecMinimize: 	Step failed to reduce Etot after 3 attempts. Quitting step.
ElecMinimize: 	Undoing step.
	Linear fluid (dielectric constant: 78.4, screening length: 5.74355 Bohr) occupying 0.979109 of unit cell:	Completed after 0 iterations at t[s]:    212.65
ElecMinimize: 	Step failed along negative gradient direction.
ElecMinimize: Probably at roundoff error limit. (Stopping)
Setting wave functions to eigenvectors of Hamiltonian
Completed 4 of 7 configurations.
	Linear fluid (dielectric constant: 78.4, screening length: 5.74355 Bohr) occupying 0.979105 of unit cell:	Completed after 8 iterations at t[s]:    217.86

-------- Electronic minimization -----------
	Linear fluid (dielectric constant: 78.4, screening length: 5.74355 Bohr) occupying 0.979105 of unit cell:	Completed after 0 iterations at t[s]:    219.47
ElecMinimize: Iter:   0  Etot: -17.705442823035291  |grad|_K:  3.188e-05  alpha:  1.000e+00
	Linear fluid (dielectric constant: 78.4, screening length: 5.74355 Bohr) occupying 0.979100 of unit cell:	Completed after 7 iterations at t[s]:    223.16
	Linear fluid (dielectric constant: 78.4, screening length: 5.74355 Bohr) occupying 0.979103 of unit cell:	Completed after 3 iterations at t[s]:    226.24
ElecMinimize: Iter:   1  Etot: -17.705474963241144  |grad|_K:  7.095e-06  alpha:  5.502e-01  linmin:  2.759e-03  t[s]:    227.47
	Linear fluid (dielectric constant: 78.4, screening length: 5.74355 Bohr) occupying 0.979102 of unit cell:	Completed after 2 iterations at t[s]:    228.82
	Linear fluid (dielectric constant: 78.4, screening length: 5.74355 Bohr) occupying 0.979102 of unit cell:	Completed after 0 iterations at t[s]:    230.72
ElecMinimize: Iter:   2  Etot: -17.705476929706002  |grad|_K:  3.388e-06  alpha:  6.776e-01  linmin: -3.255e-02  t[s]:    231.87
	Linear fluid (dielectric constant: 78.4, screening length: 5.74355 Bohr) occupying 0.979101 of unit cell:	Completed after 1 iterations at t[s]:    233.62
	Linear fluid (dielectric constant: 78.4, screening length: 5.74355 Bohr) occupying 0.979101 of unit cell:	Completed after 0 iterations at t[s]:    235.40
ElecMinimize: Iter:   3  Etot: -17.705477426641366  |grad|_K:  1.472e-06  alpha:  7.360e-01  linmin: -2.408e-02  t[s]:    236.57
	Linear fluid (dielectric constant: 78.4, screening length: 5.74355 Bohr) occupying 0.979101 of unit cell:	Completed after 0 iterations at t[s]:    237.44
	Linear fluid (dielectric constant: 78.4, screening length: 5.74355 Bohr) occupying 0.979101 of unit cell:	Completed after 0 iterations at t[s]:    239.04
ElecMinimize: Iter:   4  Etot: -17.705477516807683  |grad|_K:  6.444e-07  alpha:  7.131e-01  linmin: -3.207e-06  t[s]:    239.92
	Linear fluid (dielectric constant: 78.4, screening length: 5.74355 Bohr) occupying 0.979101 of unit cell:	Completed after 0 iterations at t[s]:    241.14
	Linear fluid (dielectric constant: 78.4, screening length: 5.74355 Bohr) occupying 0.979101 of unit cell:	Completed after 0 iterations at t[s]:    242.72
ElecMinimize: Iter:   5  Etot: -17.705477528329883  |grad|_K:  2.659e-07  alpha:  5.571e-01  linmin: -3.801e-01  t[s]:    243.61
	Linear fluid (dielectric constant: 78.4, screening length: 5.74355 Bohr) occupying 0.979101 of unit cell:	Completed after 0 iterations at t[s]:    244.37
	Linear fluid (dielectric constant: 78.4, screening length: 5.74355 Bohr) occupying 0.979101 of unit cell:	Completed after 0 iterations at t[s]:    245.97
ElecMinimize: Iter:   6  Etot: -17.705477532375681  |grad|_K:  1.788e-07  alpha:  8.265e-01  linmin:  1.592e-05  t[s]:    246.97
	Linear fluid (dielectric constant: 78.4, screening length: 5.74355 Bohr) occupying 0.979101 of unit cell:	Completed after 0 iterations at t[s]:    247.83
	Linear fluid (dielectric constant: 78.4, screening length: 5.74355 Bohr) occupying 0.979101 of unit cell:	Completed after 0 iterations at t[s]:    249.57
ElecMinimize: Iter:   7  Etot: -17.705477533814335  |grad|_K:  9.993e-08  alpha:  7.831e-01  linmin:  6.963e-05  t[s]:    250.52
ElecMinimize: Converged (|Delta Etot|<1.000000e-08 for 2 iters).
Setting wave functions to eigenvectors of Hamiltonian
Completed 5 of 7 configurations.
	Linear fluid (dielectric constant: 78.4, screening length: 5.74355 Bohr) occupying 0.979105 of unit cell:	Completed after 7 iterations at t[s]:    254.28

-------- Electronic minimization -----------
	Linear fluid (dielectric constant: 78.4, screening length: 5.74355 Bohr) occupying 0.979105 of unit cell:	Completed after 0 iterations at t[s]:    255.86
ElecMinimize: Iter:   0  Etot: -17.705459697146807  |grad|_K:  2.266e-05  alpha:  1.000e+00
	Linear fluid (dielectric constant: 78.4, screening length: 5.74355 Bohr) occupying 0.979109 of unit cell:	Completed after 5 iterations at t[s]:    259.08
	Linear fluid (dielectric constant: 78.4, screening length: 5.74355 Bohr) occupying 0.979107 of unit cell:	Completed after 3 iterations at t[s]:    261.46
ElecMinimize: Iter:   1  Etot: -17.705475955807980  |grad|_K:  5.102e-06  alpha:  5.507e-01  linmin:  3.820e-03  t[s]:    262.33
	Linear fluid (dielectric constant: 78.4, screening length: 5.74355 Bohr) occupying 0.979108 of unit cell:	Completed after 1 iterations at t[s]:    263.49
	Linear fluid (dielectric constant: 78.4, screening length: 5.74355 Bohr) occupying 0.979108 of unit cell:	Completed after 0 iterations at t[s]:    265.06
ElecMinimize: Iter:   2  Etot: -17.705476995247011  |grad|_K:  2.489e-06  alpha:  6.918e-01  linmin: -2.975e-02  t[s]:    265.94
	Linear fluid (dielectric constant: 78.4, screening length: 5.74355 Bohr) occupying 0.979109 of unit cell:	Completed after 1 iterations at t[s]:    267.20
	Linear fluid (dielectric constant: 78.4, screening length: 5.74355 Bohr) occupying 0.979109 of unit cell:	Completed after 0 iterations at t[s]:    269.40
ElecMinimize: Iter:   3  Etot: -17.705477266750378  |grad|_K:  1.088e-06  alpha:  7.438e-01  linmin: -6.284e-02  t[s]:    270.51
	Linear fluid (dielectric constant: 78.4, screening length: 5.74355 Bohr) occupying 0.979109 of unit cell:	Completed after 0 iterations at t[s]:    271.44
	Linear fluid (dielectric constant: 78.4, screening length: 5.74355 Bohr) occupying 0.979109 of unit cell:	Completed after 0 iterations at t[s]:    273.08
ElecMinimize: Iter:   4  Etot: -17.705477319005389  |grad|_K:  4.965e-07  alpha:  7.399e-01  linmin:  7.338e-06  t[s]:    274.03
	Linear fluid (dielectric constant: 78.4, screening length: 5.74355 Bohr) occupying 0.979109 of unit cell:	Completed after 0 iterations at t[s]:    274.90
	Linear fluid (dielectric constant: 78.4, screening length: 5.74355 Bohr) occupying 0.979109 of unit cell:	Completed after 0 iterations at t[s]:    277.09
ElecMinimize: Iter:   5  Etot: -17.705477328909762  |grad|_K:  2.149e-07  alpha:  6.993e-01  linmin:  2.548e-05  t[s]:    278.08
	Linear fluid (dielectric constant: 78.4, screening length: 5.74355 Bohr) occupying 0.979109 of unit cell:	Completed after 1 iterations at t[s]:    279.25
	Linear fluid (dielectric constant: 78.4, screening length: 5.74355 Bohr) occupying 0.979109 of unit cell:	Completed after 0 iterations at t[s]:    280.84
ElecMinimize: 	Step increased Etot by 1.152527e-08, reducing alpha to 8.613002e-03.
	Linear fluid (dielectric constant: 78.4, screening length: 5.74355 Bohr) occupying 0.979109 of unit cell:	Completed after 0 iterations at t[s]:    282.51
ElecMinimize: 	Step increased Etot by 1.173838e-08, reducing alpha to 8.613002e-04.
	Linear fluid (dielectric constant: 78.4, screening length: 5.74355 Bohr) occupying 0.979109 of unit cell:	Completed after 0 iterations at t[s]:    284.15
ElecMinimize: 	Step increased Etot by 1.176222e-08, reducing alpha to 8.613002e-05.
ElecMinimize: 	Step failed to reduce Etot after 3 attempts. Quitting step.
ElecMinimize: 	Undoing step.
	Linear fluid (dielectric constant: 78.4, screening length: 5.74355 Bohr) occupying 0.979109 of unit cell:	Completed after 0 iterations at t[s]:    285.80
ElecMinimize: 	Step failed: resetting search direction.
ElecMinimize: Iter:   6  Etot: -17.705477317147292  |grad|_K:  3.259e-07  alpha:  8.613e-05
	Linear fluid (dielectric constant: 78.4, screening length: 5.74355 Bohr) occupying 0.979109 of unit cell:	Completed after 0 iterations at t[s]:    287.43
	Linear fluid (dielectric constant: 78.4, screening length: 5.74355 Bohr) occupying 0.979109 of unit cell:	Completed after 0 iterations at t[s]:    289.01
ElecMinimize: Iter:   7  Etot: -17.705477321979501  |grad|_K:  2.045e-07  alpha:  7.921e-01  linmin: -1.784e-05  t[s]:    289.88
	Linear fluid (dielectric constant: 78.4, screening length: 5.74355 Bohr) occupying 0.979109 of unit cell:	Completed after 0 iterations at t[s]:    290.66
	Linear fluid (dielectric constant: 78.4, screening length: 5.74355 Bohr) occupying 0.979109 of unit cell:	Completed after 0 iterations at t[s]:    292.23
ElecMinimize: Iter:   8  Etot: -17.705477323914561  |grad|_K:  1.262e-07  alpha:  8.057e-01  linmin:  5.078e-05  t[s]:    293.14
ElecMinimize: Converged (|Delta Etot|<1.000000e-08 for 2 iters).
Setting wave functions to eigenvectors of Hamiltonian
Completed 6 of 7 configurations.
	Linear fluid (dielectric constant: 78.4, screening length: 5.74355 Bohr) occupying 0.979105 of unit cell:	Completed after 8 iterations at t[s]:    296.90

-------- Electronic minimization -----------
	Linear fluid (dielectric constant: 78.4, screening length: 5.74355 Bohr) occupying 0.979105 of unit cell:	Completed after 0 iterations at t[s]:    298.48
ElecMinimize: Iter:   0  Etot: -17.705442954019126  |grad|_K:  3.180e-05  alpha:  1.000e+00
	Linear fluid (dielectric constant: 78.4, screening length: 5.74355 Bohr) occupying 0.979101 of unit cell:	Completed after 7 iterations at t[s]:    301.67
	Linear fluid (dielectric constant: 78.4, screening length: 5.74355 Bohr) occupying 0.979103 of unit cell:	Completed after 3 iterations at t[s]:    304.01
ElecMinimize: Iter:   1  Etot: -17.705475010201262  |grad|_K:  6.995e-06  alpha:  5.514e-01  linmin:  2.588e-03  t[s]:    304.88
	Linear fluid (dielectric constant: 78.4, screening length: 5.74355 Bohr) occupying 0.979102 of unit cell:	Completed after 2 iterations at t[s]:    306.22
	Linear fluid (dielectric constant: 78.4, screening length: 5.74355 Bohr) occupying 0.979102 of unit cell:	Completed after 0 iterations at t[s]:    307.78
ElecMinimize: Iter:   2  Etot: -17.705476978398835  |grad|_K:  3.326e-06  alpha:  6.964e-01  linmin: -2.949e-02  t[s]:    308.68
	Linear fluid (dielectric constant: 78.4, screening length: 5.74355 Bohr) occupying 0.979101 of unit cell:	Completed after 2 iterations at t[s]:    310.06
	Linear fluid (dielectric constant: 78.4, screening length: 5.74355 Bohr) occupying 0.979101 of unit cell:	Completed after 0 iterations at t[s]:    312.07
ElecMinimize: Iter:   3  Etot: -17.705477447884462  |grad|_K:  1.417e-06  alpha:  7.233e-01  linmin: -5.308e-02  t[s]:    313.48
	Linear fluid (dielectric constant: 78.4, screening length: 5.74355 Bohr) occupying 0.979101 of unit cell:	Completed after 0 iterations at t[s]:    314.42
	Linear fluid (dielectric constant: 78.4, screening length: 5.74355 Bohr) occupying 0.979101 of unit cell:	Completed after 0 iterations at t[s]:    316.41
ElecMinimize: Iter:   4  Etot: -17.705477532153580  |grad|_K:  6.395e-07  alpha:  7.081e-01  linmin: -2.937e-06  t[s]:    317.29
	Linear fluid (dielectric constant: 78.4, screening length: 5.74355 Bohr) occupying 0.979101 of unit cell:	Completed after 0 iterations at t[s]:    318.06
	Linear fluid (dielectric constant: 78.4, screening length: 5.74355 Bohr) occupying 0.979101 of unit cell:	Completed after 0 iterations at t[s]:    320.16
ElecMinimize: Iter:   5  Etot: -17.705477548862525  |grad|_K:  2.901e-07  alpha:  7.111e-01  linmin:  3.137e-06  t[s]:    321.14
	Linear fluid (dielectric constant: 78.4, screening length: 5.74355 Bohr) occupying 0.979101 of unit cell:	Completed after 0 iterations at t[s]:    321.91
	Linear fluid (dielectric constant: 78.4, screening length: 5.74355 Bohr) occupying 0.979101 of unit cell:	Completed after 0 iterations at t[s]:    323.55
ElecMinimize: Iter:   6  Etot: -17.705477552840602  |grad|_K:  1.636e-07  alpha:  8.226e-01  linmin:  1.811e-05  t[s]:    324.62
	Linear fluid (dielectric constant: 78.4, screening length: 5.74355 Bohr) occupying 0.979101 of unit cell:	Completed after 0 iterations at t[s]:    325.38
	Linear fluid (dielectric constant: 78.4, screening length: 5.74355 Bohr) occupying 0.979101 of unit cell:	Completed after 0 iterations at t[s]:    326.96
ElecMinimize: Iter:   7  Etot: -17.705477554073326  |grad|_K:  8.639e-08  alpha:  8.019e-01  linmin: -2.802e-05  t[s]:    327.83
ElecMinimize: Converged (|Delta Etot|<1.000000e-08 for 2 iters).
Setting wave functions to eigenvectors of Hamiltonian
Completed 7 of 7 configurations.

Relative symmetry error in force matrix = 0.0264755
Projected out 6 rotation+translation modes
3 imaginary modes, 3 modes within cutoff, 6 real modes.

Imaginary mode 1:
Frequency: 0.000608i Eh [ 134i cm^-1 ]
Degeneracy: 1 of 2
IR intensity: 0.1136 e^2/amu [ 110.8 km/mol ]
Displacements:
disp O   0.001653999546835   0.000149114696047  -0.001803114242882
disp H   0.005895187733414   0.008374030896357   0.009905643356341
disp H  -0.000532138568997   0.000531474829415   0.002180124552572
disp H  -0.010554155448929  -0.009373504787345  -0.006426662562829

Imaginary mode 2:
Frequency: 0.000608i Eh [ 134i cm^-1 ]
Degeneracy: 2 of 2
IR intensity: 0.1136 e^2/amu [ 110.8 km/mol ]
Displacements:
disp O  -0.001127119903410   0.001995965577112  -0.000868845673702
disp H  -0.004017282496471  -0.007352139986803  -0.005104565166167
disp H   0.011130821370504   0.007114023585451   0.010928193481722
disp H  -0.003576053494920  -0.006026256204337  -0.003096741088980

Imaginary mode 3:
Frequency: 0.000323i Eh [ 71i cm^-1 ]
Degeneracy: 1 of 1
IR intensity: 0.0038 e^2/amu [ 3.7 km/mol ]
Displacements:
disp O   0.003002323006521   0.003002323006521   0.003002323006520
disp H   0.003270768011251   0.003717523806818   0.003717523806817
disp H   0.003717523806818   0.003270768011251   0.003717523806818
disp H   0.003717523806819   0.003717523806817   0.003270768011251

Zero mode 1:
Frequency: 0.000010i Eh [ 2i cm^-1 ]
Degeneracy: 1 of 3
IR intensity: 0.0160 e^2/amu [ 15.6 km/mol ]
Displacements:
disp O   0.003040912766984   0.000624867159880  -0.003665779926865
disp H   0.001851419546684  -0.001507818894551  -0.007514823846487
disp H   0.003767745696215   0.000380442111475  -0.005621778868563
disp H   0.007129597763561   0.003747078149823  -0.002231861658159

Zero mode 2:
Frequency: 0.000010i Eh [ 2i cm^-1 ]
Degeneracy: 2 of 3
IR intensity: 0.0160 e^2/amu [ 15.6 km/mol ]
Displacements:
disp O   0.002477206250529  -0.003872110832166   0.001394904581636
disp H   0.001508214284603  -0.007362010730907   0.000011932413285
disp H   0.006502062148969  -0.002357483502793   0.004986814832851
disp H   0.002375195898619  -0.006513994562817   0.000849269218190

Zero mode 3:
Frequency: 0.000000 Eh [ 0 cm^-1 ]
Degeneracy: 3 of 3
IR intensity: 0.0000 e^2/amu [ 0.0 km/mol ]
Displacements:
disp O   0.000000000000097  -0.000000000000066  -0.000000000000030
disp H   0.000000000000059  -0.009524166851980   0.009524166851695
disp H   0.009524166851999  -0.000000000000040  -0.009524166851802
disp H  -0.009524166851653   0.009524166851743  -0.000000000000018

Real mode 1:
Frequency: 0.004372 Eh [ 960 cm^-1 ]
Degeneracy: 1 of 1
IR intensity: 0.7633 e^2/amu [ 744.1 km/mol ]
Displacements:
disp O   0.001497510821810   0.001497510821810   0.001497510821810
disp H  -0.003030468104175  -0.008265565187575  -0.008265565187575
disp H  -0.008265565187575  -0.003030468104175  -0.008265565187575
disp H  -0.008265565187575  -0.008265565187575  -0.003030468104175

Real mode 2:
Frequency: 0.006958 Eh [ 1527 cm^-1 ]
Degeneracy: 1 of 2
IR intensity: 0.2061 e^2/amu [ 200.9 km/mol ]
Displacements:
disp O   0.000885055152465   0.000351073495000  -0.001236128647464
disp H   0.000069865010735  -0.011375228044399   0.006647551339181
disp H  -0.012980747415608   0.000027713248636   0.011105427013813
disp H   0.000269801030586   0.006333196076426  -0.000097578259372

Real mode 3:
Frequency: 0.006958 Eh [ 1527 cm^-1 ]
Degeneracy: 2 of 2
IR intensity: 0.2061 e^2/amu [ 200.9 km/mol ]
Displacements:
disp O   0.000916371584210  -0.001224666037890   0.000308294453680
disp H   0.000072337085875   0.006255951578254  -0.011150910474239
disp H  -0.000181493095573  -0.000096673417070   0.006723260671164
disp H  -0.012979212249418   0.011332403569812   0.000024336331195

Real mode 4:
Frequency: 0.015943 Eh [ 3499 cm^-1 ]
Degeneracy: 1 of 2
IR intensity: 1.1341 e^2/amu [ 1105.6 km/mol ]
Displacements:
disp O   0.000670568252745  -0.001358447705380   0.000687879452635
disp H  -0.008638045118286   0.001804401119633   0.001843635717590
disp H  -0.003695291134932   0.017499087560232  -0.003694959224189
disp H   0.001890558104556   0.001851655417342  -0.008861042441947

Real mode 5:
Frequency: 0.015943 Eh [ 3499 cm^-1 ]
Degeneracy: 2 of 2
IR intensity: 1.1341 e^2/amu [ 1105.6 km/mol ]
Displacements:
disp O   0.001181447535530  -0.000009994625916  -0.001171452909614
disp H  -0.015219028152631   0.003224799933314   0.003202531085136
disp H  -0.000004630175811   0.000128747564845  -0.000049742758438
disp H  -0.003175057174876  -0.003197900909325   0.015090280587788

Real mode 6:
Frequency: 0.016070 Eh [ 3527 cm^-1 ]
Degeneracy: 1 of 1
IR intensity: 0.1293 e^2/amu [ 126.0 km/mol ]
Displacements:
disp O   0.000415566127034   0.000415566127034   0.000415566127033
disp H  -0.012709754054602   0.002927490921735   0.002927490921735
disp H   0.002927490921735  -0.012709754054602   0.002927490921735
disp H   0.002927490921735   0.002927490921735  -0.012709754054600

Vibrational free energy components at T = 298 K:
	ZPE:          0.033122
	Evib:         0.033173
	TSvib:        0.000062
	Avib:         0.033111

End date and time: Tue Apr 23 00:00:17 2019  (Duration: 0-0:05:29.03)
Done!
